unknown system                          
   1.00000000000000     
     2.573869    0.000000    0.000000
     1.286934    2.229036    0.000000
     0.000000    0.000000   30.304665
   Cu   H 
     4     1
Direct
  0.000000  0.000000  0.395979
  0.333333  0.333333  0.465326
  0.666667  0.666667  0.534674
  0.000000  0.000000  0.604021
  0.294481  0.333333  0.637020
 
   10   10  120
 0.47710E-10 0.47211E-10 0.30787E-11 0.34223E-10 0.16134E-12 0.57555E-11 0.32765E-13 0.17415E-10 0.36287E-12 0.69870E-10
 0.44733E-10 0.10864E-09 0.10045E-10 0.16496E-11 0.82087E-13 0.13611E-08 0.44048E-13 0.18908E-10 0.22910E-12 0.50818E-10
 0.49742E-12 0.11685E-11 0.42008E-12 0.80200E-13 0.15016E-13 0.14355E-12 0.60091E-13 0.16492E-11 0.43732E-13 0.72152E-12
 0.24886E-11 0.44550E-12 0.95340E-13 0.47004E-13 0.32668E-13 0.19011E-12 0.15349E-13 0.56280E-12 0.89496E-12 0.11379E-11
 0.74912E-13 0.46615E-13 0.16195E-13 0.22926E-13 0.38775E-13 0.42577E-13 0.51903E-14 0.68556E-13 0.10004E-12 0.57565E-13
 0.26071E-11 0.58607E-10 0.25489E-12 0.25978E-12 0.53915E-13 0.36733E-11 0.43687E-13 0.44567E-12 0.52014E-13 0.40400E-10
 0.33779E-13 0.45394E-13 0.56413E-13 0.22149E-13 0.68834E-14 0.37637E-13 0.18388E-13 0.13073E-13 0.64809E-14 0.35777E-13
 0.15287E-10 0.14394E-10 0.21651E-09 0.18139E-11 0.14462E-12 0.53184E-12 0.12879E-13 0.52347E-13 0.11868E-12 0.11466E-10
 0.33696E-12 0.22955E-12 0.85602E-13 0.84531E-12 0.15736E-12 0.67057E-13 0.63560E-14 0.11474E-12 0.19254E-12 0.32427E-12
 0.85028E-10 0.71055E-10 0.52348E-11 0.71639E-11 0.11062E-12 0.20832E-08 0.35430E-13 0.11457E-10 0.34010E-12 0.24987E-10
 0.94103E-12 0.12469E-11 0.11426E-11 0.33805E-12 0.17916E-13 0.43247E-12 0.21572E-12 0.11142E-11 0.58308E-13 0.55942E-12
 0.10931E-11 0.56253E-10 0.42169E-10 0.12864E-11 0.33432E-13 0.61035E-11 0.14581E-12 0.13989E-10 0.26770E-12 0.52432E-10
 0.62373E-12 0.19090E-11 0.35068E-12 0.60021E-13 0.60646E-14 0.84627E-13 0.14259E-12 0.17303E-11 0.51195E-13 0.74088E-12
 0.16312E-12 0.47250E-12 0.68390E-13 0.11047E-13 0.70499E-14 0.10147E-12 0.43521E-13 0.77131E-12 0.88184E-12 0.16644E-11
 0.11935E-13 0.21039E-13 0.61617E-14 0.56066E-14 0.11408E-13 0.19484E-13 0.67862E-14 0.34750E-13 0.59619E-13 0.29726E-13
 0.48311E-12 0.39333E-11 0.11725E-12 0.11935E-12 0.24064E-13 0.32629E-11 0.11113E-12 0.13781E-10 0.99587E-13 0.11732E-10
 0.20903E-12 0.14901E-12 0.14444E-12 0.65933E-13 0.89928E-14 0.95285E-13 0.91413E-13 0.75162E-13 0.17014E-13 0.86764E-13
 0.99326E-12 0.11178E-10 0.12217E-09 0.21720E-11 0.59092E-13 0.39204E-10 0.73913E-13 0.10637E-11 0.28118E-12 0.52311E-08
 0.55074E-13 0.26525E-12 0.95673E-13 0.77682E-12 0.91427E-13 0.13797E-12 0.16598E-13 0.26597E-12 0.27707E-12 0.23685E-12
 0.52148E-12 0.71283E-10 0.41104E-11 0.12546E-10 0.47976E-13 0.59926E-11 0.84835E-13 0.77446E-08 0.24717E-12 0.52307E-11
 0.25681E-13 0.40162E-13 0.55830E-13 0.21816E-13 0.28866E-14 0.29074E-13 0.60424E-13 0.32821E-13 0.97214E-14 0.28502E-13
 0.37803E-13 0.77592E-11 0.30758E-08 0.68409E-12 0.13156E-13 0.87096E-12 0.34943E-12 0.10394E-10 0.20480E-12 0.43417E-10
 0.58099E-13 0.27359E-11 0.18871E-12 0.22371E-13 0.26645E-14 0.26645E-13 0.16855E-12 0.15444E-11 0.44652E-13 0.70774E-12
 0.15654E-13 0.31991E-12 0.23870E-13 0.34972E-14 0.22204E-14 0.30212E-13 0.84127E-13 0.77667E-12 0.71196E-12 0.22634E-11
 0.24009E-14 0.95479E-14 0.27200E-14 0.19429E-14 0.40523E-14 0.88263E-14 0.54678E-14 0.14475E-13 0.26715E-13 0.12906E-13
 0.32321E-13 0.72210E-12 0.32224E-13 0.32779E-13 0.10186E-13 0.33566E-11 0.29664E-12 0.93450E-08 0.88402E-13 0.43742E-11
 0.57718E-13 0.35175E-12 0.20024E-12 0.13972E-12 0.70777E-14 0.25455E-12 0.34159E-12 0.26901E-12 0.30143E-13 0.21136E-12
 0.31461E-13 0.86900E-11 0.47577E-10 0.21791E-11 0.21594E-13 0.12675E-09 0.26365E-12 0.48641E-11 0.22066E-12 0.30607E-10
 0.93814E-14 0.20488E-12 0.78097E-13 0.60042E-12 0.39177E-13 0.11982E-12 0.29560E-13 0.21323E-12 0.26362E-12 0.16959E-12
 0.26878E-13 0.54311E-10 0.31594E-11 0.21003E-10 0.18610E-13 0.29307E-11 0.20769E-12 0.29589E-10 0.17589E-12 0.21415E-11
 0.57732E-14 0.82573E-14 0.94785E-14 0.60507E-14 0.98532E-15 0.56899E-14 0.10630E-13 0.74801E-14 0.28033E-14 0.66752E-14
 0.79797E-14 0.28229E-11 0.40896E-10 0.57800E-12 0.86875E-14 0.42572E-12 0.24291E-11 0.82677E-11 0.22785E-12 0.51414E-10
 0.10367E-13 0.76105E-11 0.16606E-12 0.20567E-13 0.15821E-14 0.22454E-13 0.25625E-12 0.17843E-11 0.42341E-13 0.65481E-12
 0.49544E-14 0.33240E-12 0.21261E-13 0.16098E-14 0.10825E-14 0.24009E-13 0.37838E-12 0.10199E-11 0.54663E-12 0.34171E-11
 0.94369E-15 0.64948E-14 0.15266E-14 0.97145E-15 0.22760E-14 0.59952E-14 0.54123E-14 0.95479E-14 0.14502E-13 0.87430E-14
 0.62450E-14 0.37809E-12 0.24758E-13 0.25063E-13 0.68834E-14 0.30825E-11 0.12600E-11 0.97313E-10 0.10950E-12 0.18738E-11
 0.10283E-13 0.25039E-11 0.35827E-12 0.74163E-12 0.69528E-14 0.11586E-11 0.11668E-11 0.22357E-12 0.58856E-13 0.73613E-12
 0.73136E-14 0.71101E-11 0.41137E-10 0.24816E-11 0.13045E-13 0.35978E-10 0.22173E-12 0.45432E-12 0.24192E-12 0.56539E-11
 0.27478E-14 0.22926E-12 0.70666E-13 0.44439E-12 0.19609E-13 0.14186E-12 0.57482E-13 0.23216E-12 0.27946E-12 0.12222E-12
 0.64254E-14 0.64250E-10 0.23701E-11 0.47480E-10 0.11560E-13 0.15334E-11 0.72015E-12 0.55436E-11 0.12478E-12 0.11831E-11
 0.17625E-14 0.23731E-14 0.25813E-14 0.19845E-14 0.30531E-15 0.17486E-14 0.23037E-14 0.22482E-14 0.10686E-14 0.20262E-14
 0.22760E-14 0.14801E-11 0.10569E-10 0.34386E-12 0.44964E-14 0.17042E-12 0.92706E-11 0.65657E-11 0.19967E-12 0.45536E-10
 0.28311E-14 0.26993E-10 0.10156E-12 0.76883E-14 0.74940E-15 0.79659E-14 0.16626E-12 0.17138E-11 0.39108E-13 0.67564E-12
 0.17208E-14 0.22427E-12 0.76605E-14 0.63838E-15 0.44409E-15 0.82989E-14 0.10715E-11 0.11947E-11 0.54250E-12 0.69076E-11
 0.38858E-15 0.36915E-14 0.69389E-15 0.36082E-15 0.10270E-14 0.33029E-14 0.40523E-14 0.47323E-14 0.72581E-14 0.45519E-14
 0.19429E-14 0.15718E-12 0.86320E-14 0.85210E-14 0.36360E-14 0.33195E-11 0.19548E-11 0.17482E-11 0.50487E-13 0.21143E-11
 0.22482E-14 0.86059E-11 0.24308E-12 0.24382E-11 0.49544E-14 0.21989E-11 0.19529E-12 0.31211E-13 0.39260E-13 0.10789E-11
 0.21511E-14 0.58164E-11 0.25270E-10 0.27117E-11 0.61617E-14 0.20851E-11 0.31794E-13 0.34486E-13 0.82281E-13 0.29317E-11
 0.99920E-15 0.20044E-12 0.62284E-13 0.43228E-12 0.93953E-14 0.60590E-13 0.38802E-13 0.80297E-13 0.23374E-12 0.10836E-12
 0.19429E-14 0.53996E-10 0.20443E-11 0.29371E-09 0.55650E-14 0.17321E-11 0.10583E-11 0.28866E-11 0.10994E-12 0.73214E-12
 0.59674E-15 0.76328E-15 0.11102E-14 0.83267E-15 0.16653E-15 0.61062E-15 0.77716E-15 0.88818E-15 0.58287E-15 0.70777E-15
 0.83267E-15 0.87647E-12 0.45274E-11 0.26976E-12 0.26368E-14 0.98421E-13 0.18350E-10 0.53459E-11 0.22160E-12 0.75992E-10
 0.12351E-14 0.52648E-08 0.80297E-13 0.56899E-14 0.58287E-15 0.56899E-14 0.10877E-12 0.19983E-11 0.43118E-13 0.59427E-12
 0.77716E-15 0.19534E-12 0.55234E-14 0.36082E-15 0.30531E-15 0.57732E-14 0.46314E-11 0.13519E-11 0.44491E-12 0.14069E-10
 0.11102E-15 0.22204E-14 0.49960E-15 0.27756E-15 0.66613E-15 0.21094E-14 0.32335E-14 0.31086E-14 0.51348E-14 0.29421E-14
 0.66613E-15 0.92176E-13 0.59397E-14 0.59397E-14 0.23315E-14 0.32884E-11 0.15261E-11 0.39634E-12 0.35652E-13 0.18409E-11
 0.72164E-15 0.16256E-10 0.15635E-12 0.11452E-10 0.38441E-14 0.20116E-11 0.59217E-13 0.84099E-14 0.27506E-13 0.89810E-12
 0.77716E-15 0.48243E-11 0.23578E-10 0.27819E-11 0.37886E-14 0.41185E-12 0.84377E-14 0.91038E-14 0.49502E-13 0.15974E-11
 0.51348E-15 0.22352E-12 0.65184E-13 0.35064E-12 0.63005E-14 0.40107E-13 0.26978E-13 0.48947E-13 0.27457E-12 0.85196E-13
 0.69389E-15 0.91168E-10 0.15502E-11 0.88083E-08 0.34001E-14 0.16235E-11 0.88068E-12 0.15775E-11 0.86681E-13 0.50560E-12
 0.33307E-15 0.49960E-15 0.30531E-15 0.44409E-15 0.83267E-16 0.41633E-15 0.33307E-15 0.47184E-15 0.26368E-15 0.40246E-15
 0.38858E-15 0.58936E-12 0.23706E-11 0.19218E-12 0.17764E-14 0.55872E-13 0.27814E-11 0.44411E-11 0.16336E-12 0.78988E-10
 0.48572E-15 0.16619E-10 0.60729E-13 0.30254E-14 0.36082E-15 0.31641E-14 0.60896E-13 0.21336E-11 0.33348E-13 0.53318E-12
 0.38858E-15 0.15085E-12 0.29698E-14 0.33307E-15 0.13878E-15 0.31364E-14 0.36059E-11 0.15462E-11 0.41344E-12 0.49538E-10
 0.11102E-15 0.16931E-14 0.30531E-15 0.83267E-16 0.36082E-15 0.14155E-14 0.24009E-14 0.20400E-14 0.30809E-14 0.19984E-14
 0.38858E-15 0.51847E-13 0.32752E-14 0.31641E-14 0.14433E-14 0.36590E-11 0.38614E-12 0.75613E-13 0.16126E-13 0.46646E-11
 0.38858E-15 0.25953E-11 0.80186E-13 0.42822E-11 0.27062E-14 0.48413E-12 0.13808E-13 0.25535E-14 0.96867E-14 0.29042E-12
 0.41633E-15 0.40984E-11 0.18433E-10 0.29361E-11 0.24286E-14 0.77265E-13 0.25951E-14 0.27756E-14 0.19582E-13 0.11722E-11
 0.19429E-15 0.16491E-12 0.47864E-13 0.32829E-12 0.36637E-14 0.17639E-13 0.96589E-14 0.19672E-13 0.21930E-12 0.75800E-13
 0.34694E-15 0.93166E-10 0.12284E-11 0.14848E-09 0.22482E-14 0.39451E-11 0.28505E-12 0.11598E-11 0.76737E-13 0.36304E-12
 0.15266E-15 0.27756E-15 0.19429E-15 0.33307E-15 0.27756E-16 0.22204E-15 0.16653E-15 0.24980E-15 0.15266E-15 0.11796E-15
 0.19429E-15 0.40987E-12 0.15082E-11 0.15259E-12 0.11657E-14 0.35472E-13 0.65919E-12 0.36942E-11 0.17215E-12 0.27094E-09
 0.23592E-15 0.50001E-11 0.43021E-13 0.21094E-14 0.22204E-15 0.19984E-14 0.29587E-13 0.24633E-11 0.35721E-13 0.51247E-12
 0.22204E-15 0.12659E-12 0.19429E-14 0.27756E-16 0.19429E-15 0.18874E-14 0.11707E-11 0.17331E-11 0.36727E-12 0.83229E-09
 0.55511E-16 0.10270E-14 0.24980E-15 0.16653E-15 0.16653E-15 0.91593E-15 0.18735E-14 0.13878E-14 0.21025E-14 0.13739E-14
 0.22204E-15 0.33085E-13 0.19984E-14 0.19706E-14 0.10547E-14 0.37143E-11 0.14137E-12 0.30843E-13 0.96173E-14 0.12416E-10
 0.27756E-15 0.63244E-12 0.36804E-13 0.10437E-11 0.21094E-14 0.16694E-12 0.50376E-14 0.10963E-14 0.43576E-14 0.11527E-12
 0.22204E-15 0.34500E-11 0.17607E-10 0.29666E-11 0.14849E-14 0.30767E-13 0.11102E-14 0.12212E-14 0.10832E-13 0.82420E-12
 0.13878E-15 0.17314E-12 0.49100E-13 0.29220E-12 0.23384E-14 0.10131E-13 0.42744E-14 0.11005E-13 0.19426E-12 0.63699E-13
 0.16653E-15 0.37132E-09 0.10427E-11 0.44782E-10 0.14433E-14 0.10346E-10 0.11331E-12 0.81632E-12 0.65080E-13 0.27700E-12
 0.27756E-16 0.13878E-15 0.69389E-16 0.22204E-15 0.13878E-16 0.11102E-15 0.83267E-16 0.10408E-15 0.13878E-15 0.83267E-16
 0.11102E-15 0.30585E-12 0.10689E-11 0.11485E-12 0.77716E-15 0.23002E-13 0.19268E-12 0.31218E-11 0.14455E-12 0.10853E-08
 0.11102E-15 0.24890E-11 0.35888E-13 0.13878E-14 0.16653E-15 0.15543E-14 0.18568E-13 0.23250E-11 0.29643E-13 0.47505E-12
 0.11102E-15 0.10044E-12 0.13045E-14 0.11102E-15 0.11102E-15 0.13184E-14 0.30337E-12 0.18844E-11 0.24617E-12 0.38625E-09
 -.13878E-16 0.69389E-15 0.11102E-15 0.11102E-15 0.97145E-16 0.66613E-15 0.15474E-14 0.92981E-15 0.13878E-14 0.90900E-15
 0.11102E-15 0.21594E-13 0.15821E-14 0.14572E-14 0.77716E-15 0.46905E-11 0.51917E-13 0.14190E-13 0.58495E-14 0.27806E-10
 0.83267E-16 0.18771E-12 0.21719E-13 0.25940E-12 0.15959E-14 0.58224E-13 0.22066E-14 0.56899E-15 0.21511E-14 0.44652E-13
 0.11796E-15 0.29594E-11 0.11975E-10 0.30076E-11 0.88818E-15 0.14141E-13 0.54817E-15 0.58287E-15 0.63213E-14 0.69672E-12
 0.83267E-16 0.14393E-12 0.39690E-13 0.20282E-12 0.14294E-14 0.61062E-14 0.21372E-14 0.64601E-14 0.15332E-12 0.48253E-13
 0.48572E-16 0.21976E-08 0.87596E-12 0.22948E-10 0.88818E-15 0.32047E-10 0.44152E-13 0.69050E-12 0.48718E-13 0.21502E-12
 -.13878E-16 0.97145E-16 0.69389E-16 0.11102E-15 -.76328E-16 0.41633E-16 0.13878E-15 0.12490E-15 0.41633E-16 0.69389E-16
 0.34694E-16 0.23291E-12 0.72643E-12 0.91635E-13 0.61062E-15 0.18797E-13 0.72137E-13 0.26449E-11 0.18181E-12 0.11940E-08
 0.62450E-16 0.12634E-11 0.28824E-13 0.10200E-14 0.11102E-15 0.11102E-14 0.10922E-13 0.31487E-11 0.34125E-13 0.53934E-12
 0.55511E-16 0.82198E-13 0.94369E-15 0.20817E-16 0.41633E-16 0.92981E-15 0.10261E-12 0.21639E-11 0.25744E-12 0.35197E-10
 0.20817E-16 0.45797E-15 0.23592E-15 0.12490E-15 0.48572E-16 0.61062E-15 0.13115E-14 0.78410E-15 0.10408E-14 0.73552E-15
 0.69389E-16 0.17649E-13 0.99920E-15 0.98532E-15 0.58287E-15 0.45800E-11 0.28255E-13 0.75495E-14 0.37331E-14 0.48208E-11
 0.55511E-16 0.70874E-13 0.12462E-13 0.91427E-13 0.12976E-14 0.30517E-13 0.13045E-14 0.35388E-15 0.13461E-14 0.24057E-13
 0.55511E-16 0.25276E-11 0.14016E-10 0.30632E-11 0.77022E-15 0.73830E-14 0.34694E-15 0.34001E-15 0.38719E-14 0.54012E-12
 0.69389E-16 0.18413E-12 0.43340E-13 0.21361E-12 0.10686E-14 0.37678E-14 0.13531E-14 0.38997E-14 0.12801E-12 0.47219E-13
 0.69389E-16 0.80915E-09 0.86135E-12 0.12677E-10 0.71471E-15 0.52302E-11 0.24127E-13 0.53661E-12 0.47365E-13 0.17314E-12
 0.13878E-16 0.55511E-16 0.34694E-16 0.83267E-16 0.10408E-15 0.83267E-16 0.62450E-16 0.41633E-16 0.69389E-17 0.20817E-16
 0.69389E-17 0.18249E-12 0.58688E-12 0.73039E-13 0.36776E-15 0.11220E-13 0.35236E-13 0.22585E-11 0.11093E-12 0.10395E-09
  0.0000     0.91873E-12 0.19353E-13 0.75634E-15 0.69389E-16 0.73552E-15 0.57246E-14 0.28645E-11 0.25521E-13 0.39568E-12
 0.27756E-16 0.67273E-13 0.67307E-15 0.69389E-17 0.83267E-16 0.68348E-15 0.44686E-13 0.22995E-11 0.18403E-12 0.16657E-10
  0.0000     0.32613E-15 0.27756E-16 0.11102E-15 0.31225E-16 0.35388E-15 0.85348E-15 0.55511E-15 0.59674E-15 0.47878E-15
 0.83267E-16 0.10568E-13 0.78410E-15 0.71471E-15 0.37470E-15 0.74973E-11 0.12573E-13 0.38303E-14 0.21788E-14 0.67235E-12
 0.10408E-15 0.34514E-13 0.62589E-14 0.40704E-13 0.86042E-15 0.13441E-13 0.66613E-15 0.19429E-15 0.61062E-15 0.11227E-13
 0.55511E-16 0.21830E-11 0.99345E-11 0.30519E-11 0.49266E-15 0.37470E-14 0.20817E-15 0.15959E-15 0.21927E-14 0.49100E-12
 0.69389E-17 0.11232E-12 0.31627E-13 0.15773E-12 0.66613E-15 0.21649E-14 0.61062E-15 0.21996E-14 0.87270E-13 0.36277E-13
  0.0000     0.88447E-10 0.61189E-12 0.87979E-11 0.45103E-15 0.67726E-12 0.11102E-13 0.48807E-12 0.36672E-13 0.14075E-12
  0.0000     0.34694E-16 0.69389E-16 0.97145E-16 -.76328E-16 0.20817E-16 0.55511E-16 0.62450E-16 -.69389E-17 0.55511E-16
 0.13878E-16 0.14481E-12 0.44490E-12 0.59446E-13 0.34694E-15 0.99504E-14 0.18770E-13 0.19369E-11 0.12042E-12 0.25869E-10
 -.20817E-16 0.60453E-12 0.17784E-13 0.66613E-15 -.41633E-16 0.61062E-15 0.43646E-14 0.35354E-11 0.28477E-13 0.40837E-12
 0.55511E-16 0.55907E-13 0.68001E-15 0.34694E-16 0.27756E-16 0.55511E-15 0.22378E-13 0.24125E-11 0.16277E-12 0.89041E-11
 0.13878E-15 0.31919E-15 0.11102E-15 0.90206E-16 -.13878E-16 0.35388E-15 0.80491E-15 0.43021E-15 0.59674E-15 0.44409E-15
 0.69389E-16 0.94993E-14 0.61756E-15 0.63838E-15 0.31225E-15 0.71030E-11 0.86875E-14 0.32821E-14 0.18804E-14 0.44409E-12
 0.76328E-16 0.18346E-13 0.47115E-14 0.20622E-13 0.76328E-15 0.90344E-14 0.54123E-15 0.18735E-15 0.52736E-15 0.75565E-14
 0.10408E-15 0.18823E-11 0.10279E-10 0.29539E-11 0.44409E-15 0.31641E-14 0.27062E-15 0.17347E-15 0.18735E-14 0.40241E-12
 -.13878E-16 0.12229E-12 0.33265E-13 0.14164E-12 0.57593E-15 0.20053E-14 0.50654E-15 0.19290E-14 0.76841E-13 0.33563E-13
 -.13878E-16 0.24948E-10 0.55637E-12 0.62912E-11 0.46491E-15 0.44806E-12 0.75495E-14 0.40349E-12 0.33452E-13 0.11778E-12
 -.55511E-16 -.13878E-16 0.13878E-16 0.48572E-16 0.55511E-16 0.69389E-16 -.13878E-16 -.27756E-16 -.27756E-16 -.48572E-16
 -.41633E-16 0.11809E-12 0.36090E-12 0.48767E-13 0.24286E-15 0.68487E-14 0.10984E-13 0.16740E-11 0.10531E-12 0.13271E-10
 0.27756E-16 0.45073E-12 0.13531E-13 0.45797E-15 0.41633E-16 0.38858E-15 0.28172E-14 0.34251E-11 0.26826E-13 0.38656E-12
 0.41633E-16 0.46359E-13 0.36082E-15 -.34694E-16 -.20817E-16 0.40939E-15 0.12199E-13 0.25653E-11 0.12659E-12 0.57363E-11
 -.62450E-16 0.22898E-15 0.97145E-16 0.55511E-16 -.83267E-16 0.27062E-15 0.61062E-15 0.34001E-15 0.46491E-15 0.38858E-15
 -.69389E-17 0.65364E-14 0.52042E-15 0.38858E-15 0.26368E-15 0.13103E-10 0.48711E-14 0.19498E-14 0.11310E-14 0.18396E-12
 -.27756E-16 0.10950E-13 0.29282E-14 0.11616E-13 0.58981E-15 0.50862E-14 0.31919E-15 0.41633E-16 0.30531E-15 0.44548E-14
 -.55511E-16 0.16406E-11 0.80222E-11 0.29274E-11 0.39552E-15 0.17833E-14 0.11102E-15 0.90206E-16 0.11380E-14 0.36843E-12
 -.69389E-17 0.10709E-12 0.30462E-13 0.11320E-12 0.38858E-15 0.11796E-14 0.32613E-15 0.11866E-14 0.61472E-13 0.27742E-13
 -.20817E-16 0.12430E-10 0.49531E-12 0.46876E-11 0.34001E-15 0.17975E-12 0.44062E-14 0.36687E-12 0.27832E-13 0.98525E-13
 -.69389E-17 -.41633E-16 0.48572E-16 0.83267E-16 -.34694E-16 0.90206E-16 0.27756E-16  0.0000     -.69389E-17 0.20817E-16
 -.20817E-16 0.95424E-13 0.29115E-12 0.39926E-13 0.24286E-15 0.55858E-14 0.65989E-14 0.14474E-11 0.93377E-13 0.37220E-11
 0.34694E-16 0.34017E-12 0.11442E-13 0.44409E-15 -.20817E-16 0.28449E-15 0.19706E-14 0.38549E-11 0.21837E-13 0.36938E-12
 0.41633E-16 0.38233E-13 0.33307E-15 0.13878E-16 -.41633E-16 0.36082E-15 0.70638E-14 0.24371E-11 0.95333E-13 0.41859E-11
 0.90206E-16 0.12490E-15 0.27756E-16 0.20817E-16 0.20817E-16 0.25674E-15 0.45797E-15 0.22204E-15 0.36776E-15 0.26368E-15
 -.27756E-16 0.53083E-14 0.29143E-15 0.37470E-15 0.20123E-15 0.15338E-10 0.32890E-14 0.13947E-14 0.89512E-15 0.10981E-12
 -.55511E-16 0.64879E-14 0.21302E-14 0.67724E-14 0.41633E-15 0.33099E-14 0.25674E-15 0.11796E-15 0.22898E-15 0.30531E-14
 0.41633E-16 0.14241E-11 0.73835E-11 0.26580E-11 0.22898E-15 0.13461E-14 0.12490E-15 0.48572E-16 0.80491E-15 0.33426E-12
 -.13878E-16 0.94980E-13 0.24036E-13 0.88415E-13 0.33307E-15 0.91593E-15 0.22898E-15 0.90900E-15 0.53527E-13 0.23509E-13
 -.41633E-16 0.35459E-11 0.43560E-12 0.37301E-11 0.25674E-15 0.10823E-12 0.29629E-14 0.33551E-12 0.23391E-13 0.84807E-13
  0.0000     0.69389E-17 0.34694E-16 0.48572E-16 0.69389E-17 0.20817E-16 0.20817E-16 -.41633E-16 -.13878E-16 0.13878E-16
 -.41633E-16 0.79763E-13 0.22819E-12 0.33633E-13 0.28449E-15 0.49336E-14 0.44686E-14 0.12629E-11 0.87597E-13 0.24187E-11
 0.13878E-16 0.24968E-12 0.95687E-14 0.32613E-15 -.13878E-16 0.30531E-15 0.15196E-14 0.52734E-11 0.24140E-13 0.36209E-12
 -.69389E-17 0.32405E-13 0.27062E-15 -.69389E-17 0.41633E-16 0.26368E-15 0.45242E-14 0.24833E-11 0.96534E-13 0.31497E-11
 0.90206E-16 0.24980E-15  0.0000     0.18041E-15 0.97145E-16 0.20123E-15 0.40939E-15 0.11796E-15 0.26368E-15 0.18735E-15
  0.0000     0.46074E-14 0.26368E-15 0.29143E-15 0.12490E-15 0.26134E-10 0.22968E-14 0.10443E-14 0.68348E-15 0.70305E-13
 0.27756E-16 0.44825E-14 0.15057E-14 0.45519E-14 0.31919E-15 0.23453E-14 0.20470E-15 0.13704E-15 0.20817E-15 0.21164E-14
 -.41633E-16 0.12510E-11 0.88985E-11 0.25898E-11 0.23592E-15 0.10165E-14 0.11449E-15 0.52042E-16 0.58981E-15 0.31347E-12
 -.27756E-16 0.87520E-13 0.25840E-13 0.91947E-13 0.23592E-15 0.75634E-15 0.19429E-15 0.75634E-15 0.39510E-13 0.21760E-13
 -.69389E-16 0.22823E-11 0.40640E-12 0.29831E-11 0.22898E-15 0.69222E-13 0.21094E-14 0.31040E-12 0.21969E-13 0.72338E-13
 -.55511E-16 -.55511E-16 -.69389E-17 0.41633E-16 -.55511E-16  0.0000     -.97145E-16 -.83267E-16 -.20817E-16 -.83267E-16
 -.20817E-16 0.64268E-13 0.18642E-12 0.27860E-13 0.13184E-15 0.29421E-14 0.29976E-14 0.10931E-11 0.61444E-13 0.96696E-12
 -.34694E-16 0.19516E-12 0.72442E-14 0.27756E-15 -.55511E-16 0.14572E-15 0.83961E-15 0.73727E-11 0.17625E-13 0.28647E-12
 0.69389E-17 0.26888E-13 0.13878E-15 -.41633E-16 0.34694E-16 0.14572E-15 0.29143E-14 0.23067E-11 0.71478E-13 0.25456E-11
 0.13878E-16 0.15959E-15 -.19429E-15 -.34694E-16 -.14572E-15 0.76328E-16 0.29837E-15 0.83267E-16 0.15266E-15 0.11449E-15
 -.69389E-17 0.28033E-14 0.83267E-16 0.12490E-15  0.0000     0.66683E-10 0.14155E-14 0.61062E-15 0.38858E-15 0.38393E-13
 0.27756E-16 0.29421E-14 0.93675E-15 0.29074E-14 0.24980E-15 0.14398E-14 0.91940E-16 -.24286E-16 0.12143E-16 0.12108E-14
 -.41633E-16 0.10855E-11 0.10141E-10 0.23350E-11 0.55511E-16 0.57419E-15 0.59848E-16 0.49440E-16 0.42327E-15 0.28639E-12
 -.41633E-16 0.61534E-13 0.18319E-13 0.69562E-13 0.15959E-15 0.46838E-15 0.60715E-16 0.39899E-15 0.29178E-13 0.18402E-13
 -.34694E-16 0.92829E-12 0.30369E-12 0.24897E-11 0.13184E-15 0.38223E-13 0.13392E-14 0.28650E-12 0.18326E-13 0.64351E-13
  0.0000     0.55511E-16  0.0000     0.83267E-16 0.27756E-16 0.83267E-16 0.83267E-16  0.0000     -.69389E-17 -.27756E-16
 0.48572E-16 0.54963E-13 0.16250E-12 0.21962E-13 0.33307E-15 0.30115E-14 0.19568E-14 0.95916E-12 0.67918E-13 0.64514E-12
 0.13878E-16 0.16406E-12 0.61964E-14 0.31919E-15 0.27756E-16 0.27062E-15 0.83267E-15 0.68363E-11 0.20303E-13 0.28998E-12
 0.83267E-16 0.21302E-13 0.26368E-15 0.69389E-16 0.15959E-15 0.27756E-15 0.18874E-14 0.22177E-11 0.65330E-13 0.20796E-11
 0.11102E-15 0.29143E-15 -.27756E-16 0.18735E-15 0.27756E-16 0.24980E-15 0.26368E-15 0.15266E-15 0.14919E-15 0.12490E-15
 0.11102E-15 0.27686E-14 0.31919E-15 0.27756E-15 0.11796E-15 0.20574E-09 0.13323E-14 0.61843E-15 0.48572E-15 0.34903E-13
 0.97145E-16 0.19013E-14 0.69389E-15 0.17625E-14 0.24286E-15 0.12490E-14 0.16914E-15 -.27756E-16 0.93675E-16 0.11484E-14
 0.55511E-16 0.95719E-12 0.76576E-11 0.22031E-11 0.24980E-15 0.64705E-15 0.55511E-16 0.78063E-17 0.39552E-15 0.25648E-12
 0.48572E-16 0.67876E-13 0.20456E-13 0.65302E-13 0.11796E-15 0.49266E-15 0.14138E-15 0.47878E-15 0.23363E-13 0.16535E-13
 -.34694E-16 0.62643E-12 0.29447E-12 0.20734E-11 0.18388E-15 0.34863E-13 0.11623E-14 0.25457E-12 0.16563E-13 0.55921E-13
 -.41633E-16 -.48572E-16 -.27756E-16 0.13878E-16 0.13878E-16 0.27756E-16 0.48572E-16 -.13878E-16 -.41633E-16 0.27756E-16
 -.76328E-16 0.45422E-13 0.13015E-12 0.20012E-13 0.83267E-16 0.21511E-14 0.15613E-14 0.83861E-12 0.58537E-13 0.31146E-12
 -.13878E-16 0.12836E-12 0.63699E-14 0.32613E-15 -.41633E-16 0.69389E-16 0.70777E-15 0.10909E-10 0.16473E-13 0.26290E-12
 0.27756E-16 0.19450E-13 0.21511E-15 0.13878E-16 0.13878E-15 0.11102E-15 0.15543E-14 0.20595E-11 0.52396E-13 0.17470E-11
 0.41633E-16 0.13878E-15 -.13878E-16 0.41633E-16 -.55511E-16 0.41633E-16 0.18041E-15 0.11796E-15 0.15613E-15 0.13878E-15
 -.13878E-16 0.23176E-14 0.13878E-16 0.19429E-15 0.83267E-16 0.13695E-08 0.84655E-15 0.39378E-15 0.38858E-15 0.19873E-13
 0.62450E-16 0.16029E-14 0.65226E-15 0.14502E-14 0.18735E-15 0.73552E-15 0.90206E-16  0.0000     0.55511E-16 0.74246E-15
 -.13878E-16 0.83791E-12 0.98382E-11 0.20259E-11 0.34694E-16 0.42501E-15 0.55511E-16 0.34694E-17 0.33307E-15 0.23817E-12
 0.69389E-17 0.58287E-13 0.16223E-13 0.53312E-13 0.14572E-15 0.36082E-15 0.10755E-15 0.20817E-15 0.23499E-13 0.14655E-13
  0.0000     0.30104E-12 0.25484E-12 0.17563E-11 0.83267E-16 0.19963E-13 0.75287E-15 0.23858E-12 0.14655E-13 0.49905E-13
  0.0000     0.41633E-16 -.41633E-16 0.55511E-16  0.0000     0.55511E-16 0.27756E-16 -.41633E-16 -.41633E-16 -.55511E-16
 0.27756E-16 0.38691E-13 0.11204E-12 0.16681E-13 0.11102E-15 0.19706E-14 0.11657E-14 0.73710E-12 0.50807E-13 0.20174E-12
 0.55511E-16 0.10797E-12 0.44409E-14 0.30531E-15 0.55511E-16 0.22204E-15 0.49960E-15 0.17657E-10 0.18818E-13 0.24754E-12
 0.41633E-16 0.16126E-13 0.18735E-15  0.0000     0.16653E-15 0.18041E-15 0.10408E-14 0.19239E-11 0.48864E-13 0.14909E-11
 0.97145E-16 0.69389E-16 -.27756E-16 0.13878E-16 0.27756E-16 0.27756E-16 0.13878E-15 0.13878E-16 0.13878E-15 0.13878E-15
 -.27756E-16 0.18596E-14 0.24980E-15 0.24980E-15 -.27756E-16 0.12614E-09 0.70777E-15 0.40246E-15 0.24980E-15 0.17819E-13
 0.83267E-16 0.12212E-14 0.51348E-15 0.10686E-14 0.13878E-15 0.66613E-15 0.65919E-16 -.27756E-16 0.62450E-16 0.58287E-15
 0.13878E-16 0.73958E-12 0.11963E-10 0.18931E-11 0.41633E-16 0.37470E-15 0.13878E-16 0.13878E-16 0.22204E-15 0.22705E-12
 -.13878E-16 0.51112E-13 0.18277E-13 0.50807E-13 0.11102E-15 0.29143E-15 0.76328E-16 0.15266E-15 0.17895E-13 0.13267E-13
  0.0000     0.19379E-12 0.23294E-12 0.14985E-11 0.11102E-15 0.17930E-13 0.74940E-15 0.22652E-12 0.13156E-13 0.44076E-13
 -.97145E-16 -.27756E-16 -.83267E-16 0.55511E-16 -.27756E-16 -.55511E-16 -.27756E-16 -.69389E-16 -.41633E-16 -.83267E-16
 -.13878E-16 0.31683E-13 0.92037E-13 0.14655E-13 -.12490E-15 0.14433E-14 0.10270E-14 0.64307E-12 0.40218E-13 0.14340E-12
 0.13878E-16 0.87930E-13 0.42744E-14 0.18041E-15  0.0000     0.12490E-15 0.33307E-15 0.34257E-10 0.14072E-13 0.19994E-12
 0.13878E-16 0.14155E-13 -.13878E-15 -.55511E-16 0.11102E-15 0.97145E-16 0.88818E-15 0.17136E-11 0.37331E-13 0.12935E-11
 -.41633E-16 -.15959E-15 -.41633E-16 -.55511E-16 -.27756E-16 -.11102E-15 0.13878E-15 0.41633E-16 0.41633E-16 0.11102E-15
 -.83267E-16 0.15266E-14 -.55511E-16 -.69389E-16 -.83267E-16 0.52352E-10 0.51348E-15 0.16653E-15 0.18041E-15 0.11914E-13
 -.55511E-16 0.73552E-15 0.40246E-15 0.76328E-15 0.83267E-16 0.51348E-15 -.27756E-16 -.27756E-16 0.41633E-16 0.52736E-15
  0.0000     0.64569E-12 0.16229E-10 0.16922E-11  0.0000     0.26368E-15 0.69389E-16 0.69389E-16 0.16653E-15 0.21010E-12
 -.27756E-16 0.40273E-13 0.13378E-13 0.39579E-13 0.83267E-16 0.24980E-15 0.41633E-16 0.19429E-15 0.13864E-13 0.11213E-13
 -.83267E-16 0.13733E-12 0.18247E-12 0.12955E-11 0.55511E-16 0.11664E-13 0.47184E-15 0.21103E-12 0.11185E-13 0.40593E-13
 -.13878E-16 0.41633E-16 -.55511E-16 -.41633E-16 -.55511E-16 0.27756E-16  0.0000     -.41633E-16 -.41633E-16 0.27756E-16
 -.13878E-16 0.27089E-13 0.77133E-13 0.13128E-13 0.83267E-16 0.13323E-14 0.88818E-15 0.56635E-12 0.35819E-13 0.88360E-13
  0.0000     0.72983E-13 0.34139E-14 0.12490E-15 -.27756E-16 0.97145E-16 0.36082E-15 0.28237E-09 0.16293E-13 0.17658E-12
 0.55511E-16 0.12768E-13 -.69389E-16 0.13878E-16 0.11102E-15 0.12490E-15 0.72164E-15 0.15860E-11 0.33293E-13 0.11263E-11
 0.27756E-16 0.27756E-16  0.0000     0.27756E-16 0.11102E-15 0.27756E-16 0.16653E-15 0.55511E-16 0.83267E-16 0.13878E-15
 -.41633E-16 0.14155E-14 0.16653E-15 0.97145E-16 -.97145E-16 0.16498E-10 0.47184E-15 0.16653E-15 0.15266E-15 0.11352E-13
 0.83267E-16 0.87430E-15 0.33307E-15 0.73552E-15 0.12490E-15 0.38858E-15 0.41633E-16 -.69389E-16 0.27756E-16 0.47184E-15
  0.0000     0.57042E-12 0.39585E-10 0.15820E-11 0.55511E-16 0.22204E-15 -.41633E-16 -.55511E-16 0.13878E-15 0.20052E-12
 -.13878E-16 0.36346E-13 0.15168E-13 0.35916E-13 0.13878E-16 0.22204E-15 0.13878E-16 0.18041E-15 0.12518E-13 0.10228E-13
 0.55511E-16 0.85473E-13 0.15768E-12 0.11167E-11 0.83267E-16 0.11185E-13 0.47184E-15 0.20324E-12 0.10117E-13 0.36693E-13
 -.13878E-16 0.27756E-16 0.13878E-16 0.13878E-15 0.27756E-16  0.0000     0.13878E-16 -.97145E-16 -.13878E-16 -.12490E-15
 0.55511E-16 0.22635E-13 0.65878E-13 0.10991E-13 0.16653E-15 0.11657E-14 0.70777E-15 0.49394E-12 0.32210E-13 0.57815E-13
 0.13878E-16 0.61895E-13 0.34001E-14 0.15266E-15 -.13878E-16 0.18041E-15 0.34694E-15 0.41933E-08 0.13989E-13 0.15664E-12
 0.83267E-16 0.10644E-13 0.11102E-15  0.0000     0.97145E-16 0.97145E-16 0.61062E-15 0.13877E-11 0.27964E-13 0.98860E-12
 -.13878E-16 0.97145E-16 0.69389E-16 0.27756E-16 -.13878E-16 -.13878E-16 0.13878E-15  0.0000     0.83267E-16 0.55511E-16
 -.69389E-16 0.12490E-14 0.20817E-15 0.55511E-16 0.55511E-16 0.15813E-10 0.38858E-15 0.23592E-15 0.11102E-15 0.85210E-14
 0.97145E-16 0.55511E-15 0.34694E-15 0.52736E-15 0.97145E-16 0.34694E-15 -.69389E-16 -.13878E-16  0.0000     0.30531E-15
 -.27756E-16 0.49755E-12 0.50113E-10 0.14001E-11 -.13878E-16 0.20817E-15 -.55511E-16 0.83267E-16 0.97145E-16 0.17329E-12
  0.0000     0.32474E-13 0.12837E-13 0.30323E-13 0.41633E-16 0.97145E-16 0.27756E-16 0.11102E-15 0.11005E-13 0.89651E-14
 -.12490E-15 0.56281E-13 0.13965E-12 0.97157E-12  0.0000     0.85071E-14 0.38858E-15 0.17449E-12 0.88679E-14 0.33612E-13
 0.20817E-16 0.24286E-16  0.0000     0.83267E-16 -.27756E-16  0.0000     -.83267E-16 -.13878E-16 -.27756E-16 0.69389E-17
 0.34694E-17 0.18943E-13 0.55830E-13 0.10075E-13 0.69389E-16 0.10547E-14 0.54123E-15 0.43371E-12 0.26520E-13 0.33432E-13
  0.0000     0.52292E-13 0.29976E-14 0.19429E-15 -.83267E-16 0.97145E-16 0.27756E-15 0.23522E-09 0.11151E-13 0.12702E-12
 0.41633E-16 0.97838E-14 0.55511E-16 0.27756E-16 -.41633E-16 0.16653E-15 0.44409E-15 0.12388E-11 0.21386E-13 0.86924E-12
 -.27756E-16 0.41633E-16 0.55511E-16 -.83267E-16 -.13878E-16  0.0000     0.83267E-16 -.13878E-16 0.41633E-16 0.41633E-16
 -.55511E-16 0.10825E-14 0.13878E-15 0.97145E-16 0.27756E-16 0.59154E-11 0.26368E-15 0.13878E-15 0.83267E-16 0.78548E-14
 -.13878E-16 0.49960E-15 0.30531E-15 0.61062E-15 0.41633E-16 0.33307E-15 0.55511E-16 -.55511E-16 -.13878E-16 0.27756E-15
 -.27756E-16 0.43773E-12 0.17026E-09 0.12730E-11 0.27756E-16 0.83267E-16 -.27756E-16  0.0000     0.16653E-15 0.17067E-12
 -.41633E-16 0.26638E-13 0.10089E-13 0.23662E-13 -.55511E-16 0.19429E-15 0.41633E-16 0.16653E-15 0.97977E-14 0.75218E-14
 -.55511E-16 0.32925E-13 0.11122E-12 0.84180E-12  0.0000     0.78965E-14 0.30531E-15 0.17528E-12 0.74107E-14 0.31232E-13
 -.13878E-16  0.0000     -.34694E-17 0.13878E-15 -.13878E-16 0.27756E-16 0.27756E-16 -.41633E-16 -.48572E-16 -.48572E-16
 -.34694E-17 0.15959E-13 0.46768E-13 0.96312E-14 0.55511E-16 0.11935E-14 0.58287E-15 0.37864E-12 0.25313E-13 0.20229E-13
 -.62450E-16 0.44090E-13 0.29698E-14 0.83267E-16 0.13878E-16 0.97145E-16 0.33307E-15 0.31582E-10 0.14131E-13 0.11291E-12
 -.27756E-16 0.92426E-14 -.13878E-16 0.12490E-15 0.27756E-16 0.13878E-16 0.48572E-15 0.11574E-11 0.24800E-13 0.75146E-12
 -.13878E-16 0.13878E-16 0.13878E-16 0.13878E-16 0.55511E-16  0.0000     0.16653E-15 0.55511E-16 0.97145E-16 0.83267E-16
 -.13878E-16 0.11380E-14 0.12490E-15 0.55511E-16 0.69389E-16 0.36942E-10 0.31919E-15 0.16653E-15 0.11102E-15 0.78965E-14
 -.55511E-16 0.47184E-15 0.31919E-15 0.52736E-15 0.12490E-15 0.36082E-15  0.0000     -.55511E-16 -.27756E-16 0.27756E-15
 0.13878E-16 0.38224E-12 0.70863E-09 0.11988E-11 -.55511E-16 0.19429E-15 -.55511E-16 -.13878E-16 0.69389E-16 0.13139E-12
 0.34694E-17 0.25424E-13 0.12712E-13 0.27769E-13 0.97145E-16 0.83267E-16  0.0000     0.97145E-16 0.97422E-14 0.75218E-14
 -.65919E-16 0.19526E-13 0.10082E-12 0.72663E-12 0.27756E-16 0.78410E-14 0.43021E-15 0.13255E-12 0.74801E-14 0.28564E-13
 0.72642E-17 0.21874E-16 -.64510E-17 0.84134E-16 -.62450E-16 -.81098E-16 -.20491E-16 -.25153E-16 -.42338E-16 -.29504E-16
 -.63358E-16 0.13360E-13 0.39536E-13 0.91211E-14 0.79797E-16 0.10634E-14 0.54817E-15 0.33106E-12 0.20331E-13 0.13799E-13
 -.16697E-16 0.37465E-13 0.29036E-14 0.99963E-16 0.10452E-15 0.98879E-16 0.27148E-15 0.12650E-10 0.12421E-13 0.86363E-13
 0.46838E-16 0.88273E-14 0.10148E-15 0.88471E-16 0.11276E-15 0.18735E-15 0.46838E-15 0.10533E-11 0.21389E-13 0.65154E-12