       N       E                     dE             d eps       ncg     rms          rms(c)
DAV:   1     0.196748184060E+03    0.19675E+03   -0.13880E+04  3024   0.920E+02
DAV:   2    -0.108184551510E+02   -0.20757E+03   -0.20131E+03  3084   0.265E+02
DAV:   3    -0.209905040235E+02   -0.10172E+02   -0.10027E+02  3232   0.784E+01
DAV:   4    -0.211001217246E+02   -0.10962E+00   -0.10929E+00  3168   0.747E+00
DAV:   5    -0.211012732243E+02   -0.11515E-02   -0.11514E-02  3312   0.525E-01    0.146E+01
RMM:   6    -0.190529513254E+02    0.20483E+01   -0.43376E+01  3161   0.643E+01    0.742E+00
RMM:   7    -0.173159620690E+02    0.17370E+01   -0.71181E+00  3155   0.269E+01    0.169E+00
RMM:   8    -0.172894866921E+02    0.26475E-01   -0.12773E-01  3205   0.281E+00    0.185E+00
RMM:   9    -0.171976228525E+02    0.91864E-01   -0.66632E-02  3193   0.223E+00    0.717E-01
RMM:  10    -0.171880610834E+02    0.95618E-02   -0.19904E-02  3214   0.120E+00    0.444E-01
RMM:  11    -0.171828823083E+02    0.51788E-02   -0.81408E-03  3203   0.729E-01    0.158E-01
RMM:  12    -0.171819299460E+02    0.95236E-03   -0.19677E-03  3204   0.368E-01    0.106E-01
RMM:  13    -0.171814777893E+02    0.45216E-03   -0.56356E-04  3146   0.190E-01    0.544E-02
RMM:  14    -0.171813864270E+02    0.91362E-04   -0.36811E-04  3137   0.133E-01    0.591E-02
RMM:  15    -0.171813965089E+02   -0.10082E-04   -0.13593E-04  3049   0.869E-02    0.218E-02
RMM:  16    -0.171815732911E+02   -0.17678E-03   -0.36143E-05  3020   0.374E-02    0.115E-02
RMM:  17    -0.171818477712E+02   -0.27448E-03   -0.71159E-05  2904   0.315E-02    0.614E-03
RMM:  18    -0.171819730858E+02   -0.12531E-03   -0.12237E-05  2320   0.136E-02    0.273E-03
RMM:  19    -0.171820253359E+02   -0.52250E-04   -0.37619E-06  2024   0.106E-02    0.389E-03
RMM:  20    -0.171820573089E+02   -0.31973E-04   -0.14739E-06  1893   0.706E-03    0.264E-03
RMM:  21    -0.171820715035E+02   -0.14195E-04   -0.57290E-07  1830   0.355E-03    0.998E-04
RMM:  22    -0.171820777079E+02   -0.62044E-05   -0.22079E-07  1655   0.222E-03    0.664E-04
RMM:  23    -0.171820800107E+02   -0.23028E-05   -0.61893E-08  1556   0.190E-03    0.248E-04
RMM:  24    -0.171820803360E+02   -0.32528E-06   -0.44335E-09   523   0.107E-03
   1 F= -.17182080E+02 E0= -.17172557E+02  d E =-.190459E-01
