 vasp.5.4.4.18Apr17-6-g9f103f2a35 (build Jun 30 2017 11:15:00) complex          
  
 executed on    STALLO_VASP_5.4.4 date 2019.10.11  10:24:43
 running on    4 total cores
 distrk:  each k-point on    4 cores,    1 groups
 distr:  one band on NCORES_PER_BAND=   2 cores,    2 groups


--------------------------------------------------------------------------------------------------------


 INCAR:
 POTCAR:   PAW_PBE Cu 05Jan2001                   
 POTCAR:   PAW_PBE H 15Jun2001                    
 POTCAR:   PAW_PBE Cu 05Jan2001                   
   VRHFIN =Cu: d10 p1                                                           
   LEXCH  = PE                                                                  
   EATOM  =  1390.9800 eV,  102.2341 Ry                                         
                                                                                
   TITEL  = PAW_PBE Cu 05Jan2001                                                
   LULTRA =        F    use ultrasoft PP ?                                      
   IUNSCR =        1    unscreen: 0-lin 1-nonlin 2-no                           
   RPACOR =    2.000    partial core radius                                     
   POMASS =   63.546; ZVAL   =   11.000    mass and valenz                      
   RCORE  =    2.300    outmost cutoff radius                                   
   RWIGS  =    2.480; RWIGS  =    1.312    wigner-seitz radius (au A)           
   ENMAX  =  273.214; ENMIN  =  204.910 eV                                      
   RCLOC  =    1.712    cutoff for local pot                                    
   LCOR   =        T    correct aug charges                                     
   LPAW   =        T    paw PP                                                  
   EAUG   =  516.456                                                            
   DEXC   =    -.008                                                            
   RMAX   =    2.789    core radius for proj-oper                               
   RAUG   =    1.300    factor for augmentation sphere                          
   RDEP   =    2.302    radius for radial grids                                 
   QCUT   =   -4.481; QGAM   =    8.962    optimization parameters              
                                                                                
   Description                                                                  
     l     E      TYP  RCUT    TYP  RCUT                                        
     2   .000     23  2.300                                                     
     2   .000     23  2.300                                                     
     0   .000     23  2.300                                                     
     0   .000     23  2.300                                                     
     1  -.200     23  2.300                                                     
     1   .000     23  2.300                                                     
     3   .000      7   .000                                                     
  local pseudopotential read in
  partial core-charges read in
  atomic valenz-charges read in
  non local Contribution for L=           2  read in
    real space projection operators read in
  non local Contribution for L=           2  read in
    real space projection operators read in
  non local Contribution for L=           0  read in
    real space projection operators read in
  non local Contribution for L=           0  read in
    real space projection operators read in
  non local Contribution for L=           1  read in
    real space projection operators read in
  non local Contribution for L=           1  read in
    real space projection operators read in
    PAW grid and wavefunctions read in
 
   number of l-projection  operators is LMAX  =           6
   number of lm-projection operators is LMMAX =          18
 
 POTCAR:   PAW_PBE H 15Jun2001                    
   VRHFIN =H: ultrasoft test                                                    
   LEXCH  = PE                                                                  
   EATOM  =    12.4884 eV,     .9179 Ry                                         
                                                                                
   TITEL  = PAW_PBE H 15Jun2001                                                 
   LULTRA =        F    use ultrasoft PP ?                                      
   IUNSCR =        0    unscreen: 0-lin 1-nonlin 2-no                           
   RPACOR =     .000    partial core radius                                     
   POMASS =    1.000; ZVAL   =    1.000    mass and valenz                      
   RCORE  =    1.100    outmost cutoff radius                                   
   RWIGS  =     .700; RWIGS  =     .370    wigner-seitz radius (au A)           
   ENMAX  =  250.000; ENMIN  =  200.000 eV                                      
   RCLOC  =     .701    cutoff for local pot                                    
   LCOR   =        T    correct aug charges                                     
   LPAW   =        T    paw PP                                                  
   EAUG   =  400.000                                                            
   RMAX   =    2.174    core radius for proj-oper                               
   RAUG   =    1.200    factor for augmentation sphere                          
   RDEP   =    1.112    radius for radial grids                                 
   QCUT   =   -5.749; QGAM   =   11.498    optimization parameters              
                                                                                
   Description                                                                  
     l     E      TYP  RCUT    TYP  RCUT                                        
     0   .000     23  1.100                                                     
     0   .500     23  1.100                                                     
     1  -.300     23  1.100                                                     
  local pseudopotential read in
  atomic valenz-charges read in
  non local Contribution for L=           0  read in
    real space projection operators read in
  non local Contribution for L=           0  read in
    real space projection operators read in
  non local Contribution for L=           1  read in
    real space projection operators read in
    PAW grid and wavefunctions read in
 
   number of l-projection  operators is LMAX  =           3
   number of lm-projection operators is LMMAX =           5
 

 ----------------------------------------------------------------------------- 
|                                                                             |
|  ADVICE TO THIS USER RUNNING 'VASP/VAMP'   (HEAR YOUR MASTER'S VOICE ...):  |
|                                                                             |
|      You have a (more or less) 'small supercell' and for smaller cells      |
|      it is recommended  to use the reciprocal-space projection scheme!      |
|      The real space optimization is not  efficient for small cells and it   |
|      is also less accurate ...                                              |
|      Therefore set LREAL=.FALSE. in the  INCAR file                         |
|                                                                             |
 ----------------------------------------------------------------------------- 

 Optimization of the real space projectors (new method)

 maximal supplied QI-value         = 16.25
 optimisation between [QCUT,QGAM] = [  7.96, 16.09] = [ 17.76, 72.49] Ry 
 Optimized for a Real-space Cutoff    1.70 Angstroem

   l    n(q)    QCUT    max X(q) W(low)/X(q) W(high)/X(q)  e(spline) 
   2      7     7.963     4.977    0.65E-04    0.90E-04    0.59E-07
   2      7     7.963    13.467    0.48E-03    0.73E-03    0.12E-06
   0      8     7.963    13.303    0.22E-04    0.12E-04    0.51E-08
   0      8     7.963    44.613    0.10E-03    0.16E-03    0.47E-07
   1      8     7.963     5.276    0.66E-04    0.10E-04    0.22E-07
   1      8     7.963     7.322    0.38E-03    0.18E-03    0.17E-06
 Optimization of the real space projectors (new method)

 maximal supplied QI-value         = 34.20
 optimisation between [QCUT,QGAM] = [  7.87, 16.08] = [ 17.33, 72.37] Ry 
 Optimized for a Real-space Cutoff    1.85 Angstroem

   l    n(q)    QCUT    max X(q) W(low)/X(q) W(high)/X(q)  e(spline) 
   0      9     7.867     4.436    0.44E-04    0.71E-04    0.23E-06
   0      9     7.867    15.341    0.29E-03    0.73E-03    0.99E-06
   1      8     7.867     4.196    0.27E-03    0.13E-02    0.91E-06
 PAW_PBE Cu 05Jan2001                   :
 energy of atom  1       EATOM=-1390.9800
 kinetic energy error for atom=    0.0930 (will be added to EATOM!!)
 PAW_PBE H 15Jun2001                    :
 energy of atom  2       EATOM=  -12.4884
 kinetic energy error for atom=    0.0868 (will be added to EATOM!!)
 
 
 POSCAR: Cu  H                                   
  positions in cartesian coordinates
  velocities in cartesian coordinates
 exchange correlation table for  LEXCH =        8
   RHO(1)=    0.500       N(1)  =     2000
   RHO(2)=  100.500       N(2)  =     4000
 


--------------------------------------------------------------------------------------------------------


 ion  position               nearest neighbor table
   1  0.000  0.000  0.396-   2 2.57   2 2.57   2 2.57
   2  0.333  0.333  0.465-   3 2.57   1 2.57   3 2.57   1 2.57   3 2.57   1 2.57
   3  0.667  0.667  0.535-   4 2.57   2 2.57   2 2.57   4 2.57   2 2.57   4 2.57
   4  0.000  0.000  0.604-   5 1.72   5 1.79   5 1.86   3 2.57   3 2.57   3 2.57
   5  0.294  0.333  0.637-   4 1.72   4 1.79   4 1.86
 
  LATTYP: Found a hexagonal cell.
 ALAT       =     2.5738686835
 C/A-ratio  =    11.7739747694
  
  Lattice vectors:
  
 A1 = (   1.2869343418,  -2.2290356659,   0.0000000000)
 A2 = (  -2.5738686835,   0.0000000000,   0.0000000000)
 A3 = (   0.0000000000,   0.0000000000, -30.3046649396)


Analysis of symmetry for initial positions (statically):
=====================================================================
 Subroutine PRICEL returns:
 Original cell was already a primitive cell.
 

 Routine SETGRP: Setting up the symmetry group for a 
 hexagonal supercell.


 Subroutine GETGRP returns: Found  1 space group operations
 (whereof  1 operations were pure point group operations)
 out of a pool of 24 trial point group operations.


The static configuration has the point symmetry C_1 .


Analysis of symmetry for dynamics (positions and initial velocities):
=====================================================================
 Subroutine PRICEL returns:
 Original cell was already a primitive cell.
 

 Routine SETGRP: Setting up the symmetry group for a 
 hexagonal supercell.


 Subroutine GETGRP returns: Found  1 space group operations
 (whereof  1 operations were pure point group operations)
 out of a pool of 24 trial point group operations.


The dynamic configuration has the point symmetry C_1 .


 Subroutine INISYM returns: Found  1 space group operations
 (whereof  1 operations are pure point group operations),
 and found     1 'primitive' translations

 
 
 KPOINTS: k-density: 4.0                          

Automatic generation of k-mesh.
Space group operators:
 irot       det(A)        alpha          n_x          n_y          n_z        tau_x        tau_y        tau_z
    1     1.000000     0.000001     1.000000     0.000000     0.000000     0.000000     0.000000     0.000000
 
 Subroutine IBZKPT returns following result:
 ===========================================
 
 Found     52 irreducible k-points:
 
 Following reciprocal coordinates:
            Coordinates               Weight
  0.000000  0.000000  0.000000      1.000000
  0.100000  0.000000  0.000000      2.000000
  0.200000 -0.000000  0.000000      2.000000
  0.300000 -0.000000  0.000000      2.000000
  0.400000 -0.000000  0.000000      2.000000
  0.500000 -0.000000  0.000000      1.000000
  0.000000  0.100000  0.000000      2.000000
  0.100000  0.100000  0.000000      2.000000
  0.200000  0.100000  0.000000      2.000000
  0.300000  0.100000  0.000000      2.000000
  0.400000  0.100000  0.000000      2.000000
  0.500000  0.100000  0.000000      2.000000
 -0.400000  0.100000  0.000000      2.000000
 -0.300000  0.100000  0.000000      2.000000
 -0.200000  0.100000  0.000000      2.000000
 -0.100000  0.100000  0.000000      2.000000
  0.000000  0.200000  0.000000      2.000000
  0.100000  0.200000  0.000000      2.000000
  0.200000  0.200000  0.000000      2.000000
  0.300000  0.200000  0.000000      2.000000
  0.400000  0.200000  0.000000      2.000000
  0.500000  0.200000  0.000000      2.000000
 -0.400000  0.200000  0.000000      2.000000
 -0.300000  0.200000  0.000000      2.000000
 -0.200000  0.200000  0.000000      2.000000
 -0.100000  0.200000  0.000000      2.000000
  0.000000  0.300000  0.000000      2.000000
  0.100000  0.300000  0.000000      2.000000
  0.200000  0.300000  0.000000      2.000000
  0.300000  0.300000  0.000000      2.000000
  0.400000  0.300000  0.000000      2.000000
  0.500000  0.300000  0.000000      2.000000
 -0.400000  0.300000  0.000000      2.000000
 -0.300000  0.300000  0.000000      2.000000
 -0.200000  0.300000  0.000000      2.000000
 -0.100000  0.300000  0.000000      2.000000
  0.000000  0.400000  0.000000      2.000000
  0.100000  0.400000  0.000000      2.000000
  0.200000  0.400000  0.000000      2.000000
  0.300000  0.400000  0.000000      2.000000
  0.400000  0.400000  0.000000      2.000000
  0.500000  0.400000  0.000000      2.000000
 -0.400000  0.400000  0.000000      2.000000
 -0.300000  0.400000  0.000000      2.000000
 -0.200000  0.400000  0.000000      2.000000
 -0.100000  0.400000  0.000000      2.000000
  0.000000  0.500000  0.000000      1.000000
  0.100000  0.500000  0.000000      2.000000
  0.200000  0.500000  0.000000      2.000000
  0.300000  0.500000  0.000000      2.000000
  0.400000  0.500000  0.000000      2.000000
  0.500000  0.500000  0.000000      1.000000
 
 Following cartesian coordinates:
            Coordinates               Weight
  0.000000  0.000000  0.000000      1.000000
  0.038852 -0.022431  0.000000      2.000000
  0.077704 -0.044862  0.000000      2.000000
  0.116556 -0.067294  0.000000      2.000000
  0.155408 -0.089725  0.000000      2.000000
  0.194260 -0.112156  0.000000      1.000000
  0.000000  0.044862  0.000000      2.000000
  0.038852  0.022431  0.000000      2.000000
  0.077704 -0.000000  0.000000      2.000000
  0.116556 -0.022431  0.000000      2.000000
  0.155408 -0.044862  0.000000      2.000000
  0.194260 -0.067294  0.000000      2.000000
 -0.155408  0.134587  0.000000      2.000000
 -0.116556  0.112156  0.000000      2.000000
 -0.077704  0.089725  0.000000      2.000000
 -0.038852  0.067294  0.000000      2.000000
  0.000000  0.089725  0.000000      2.000000
  0.038852  0.067294  0.000000      2.000000
  0.077704  0.044862  0.000000      2.000000
  0.116556  0.022431  0.000000      2.000000
  0.155408  0.000000  0.000000      2.000000
  0.194260 -0.022431  0.000000      2.000000
 -0.155408  0.179450  0.000000      2.000000
 -0.116556  0.157019  0.000000      2.000000
 -0.077704  0.134587  0.000000      2.000000
 -0.038852  0.112156  0.000000      2.000000
  0.000000  0.134587  0.000000      2.000000
  0.038852  0.112156  0.000000      2.000000
  0.077704  0.089725  0.000000      2.000000
  0.116556  0.067294  0.000000      2.000000
  0.155408  0.044862  0.000000      2.000000
  0.194260  0.022431  0.000000      2.000000
 -0.155408  0.224312  0.000000      2.000000
 -0.116556  0.201881  0.000000      2.000000
 -0.077704  0.179450  0.000000      2.000000
 -0.038852  0.157019  0.000000      2.000000
  0.000000  0.179450  0.000000      2.000000
  0.038852  0.157019  0.000000      2.000000
  0.077704  0.134587  0.000000      2.000000
  0.116556  0.112156  0.000000      2.000000
  0.155408  0.089725  0.000000      2.000000
  0.194260  0.067294  0.000000      2.000000
 -0.155408  0.269175  0.000000      2.000000
 -0.116556  0.246743  0.000000      2.000000
 -0.077704  0.224312  0.000000      2.000000
 -0.038852  0.201881  0.000000      2.000000
  0.000000  0.224312  0.000000      1.000000
  0.038852  0.201881  0.000000      2.000000
  0.077704  0.179450  0.000000      2.000000
  0.116556  0.157019  0.000000      2.000000
  0.155408  0.134587  0.000000      2.000000
  0.194260  0.112156  0.000000      1.000000
 


--------------------------------------------------------------------------------------------------------




 Dimension of arrays:
   k-points           NKPTS =     52   k-points in BZ     NKDIM =     52   number of bands    NBANDS=     28
   number of dos      NEDOS =   2401   number of ions     NIONS =      5
   non local maximal  LDIM  =      6   non local SUM 2l+1 LMDIM =     18
   total plane-waves  NPLWV =  12000
   max r-space proj   IRMAX =   1888   max aug-charges    IRDMAX=   2622
   dimension x,y,z NGX =    10 NGY =   10 NGZ =  120
   dimension x,y,z NGXF=    20 NGYF=   20 NGZF=  240
   support grid    NGXF=    20 NGYF=   20 NGZF=  240
   ions per type =               4   1
   NGX,Y,Z   is equivalent  to a cutoff of   6.46,  6.46,  6.58 a.u.
   NGXF,Y,Z  is equivalent  to a cutoff of  12.92, 12.92, 13.17 a.u.

 SYSTEM =  unknown system                          
 POSCAR =  Cu  H                                   

 Startparameter for this run:
   NWRITE =      2    write-flag & timer
   PREC   = normal    normal or accurate (medium, high low for compatibility)
   ISTART =      0    job   : 0-new  1-cont  2-samecut
   ICHARG =      2    charge: 1-file 2-atom 10-const
   ISPIN  =      1    spin polarized calculation?
   LNONCOLLINEAR =      F non collinear calculations
   LSORBIT =      F    spin-orbit coupling
   INIWAV =      1    electr: 0-lowe 1-rand  2-diag
   LASPH  =      F    aspherical Exc in radial PAW
   METAGGA=      F    non-selfconsistent MetaGGA calc.

 Electronic Relaxation 1
   ENCUT  =  250.0 eV  18.37 Ry    4.29 a.u.   3.32  3.32 39.07*2*pi/ulx,y,z
   ENINI  =  250.0     initial cutoff
   ENAUG  =  516.5 eV  augmentation charge cutoff
   NELM   =     60;   NELMIN=  4; NELMDL= -5     # of ELM steps 
   EDIFF  = 0.1E-05   stopping-criterion for ELM
   LREAL  =      T    real-space projection
   NLSPLINE    = F    spline interpolate recip. space projectors
   LCOMPAT=      F    compatible to vasp.4.4
   GGA_COMPAT  = T    GGA compatible to vasp.4.4-vasp.4.6
   LMAXPAW     = -100 max onsite density
   LMAXMIX     =    2 max onsite mixed and CHGCAR
   VOSKOWN=      0    Vosko Wilk Nusair interpolation
   ROPT   =   -0.00050  -0.00050
 Ionic relaxation
   EDIFFG = 0.1E-04   stopping-criterion for IOM
   NSW    =      0    number of steps for IOM
   NBLOCK =      1;   KBLOCK =      1    inner block; outer block 
   IBRION =     -1    ionic relax: 0-MD 1-quasi-New 2-CG
   NFREE  =      0    steps in history (QN), initial steepest desc. (CG)
   ISIF   =      2    stress and relaxation
   IWAVPR =     10    prediction:  0-non 1-charg 2-wave 3-comb
   ISYM   =      2    0-nonsym 1-usesym 2-fastsym
   LCORR  =      T    Harris-Foulkes like correction to forces

   POTIM  = 0.5000    time-step for ionic-motion
   TEIN   =    0.0    initial temperature
   TEBEG  =    0.0;   TEEND  =   0.0 temperature during run
   SMASS  =  -3.00    Nose mass-parameter (am)
   estimated Nose-frequenzy (Omega)   =  0.10E-29 period in steps =****** mass=  -0.151E-27a.u.
   SCALEE = 1.0000    scale energy and forces
   NPACO  =    256;   APACO  = 16.0  distance and # of slots for P.C.
   PSTRESS=    0.0 pullay stress

  Mass of Ions in am
   POMASS =  63.55  1.00
  Ionic Valenz
   ZVAL   =  11.00  1.00
  Atomic Wigner-Seitz radii
   RWIGS  =  -1.00 -1.00
  virtual crystal weights 
   VCA    =   1.00  1.00
   NELECT =      45.0000    total number of electrons
   NUPDOWN=      -1.0000    fix difference up-down

 DOS related values:
   EMIN   = -17.00;   EMAX   =  7.00  energy-range for DOS
   EFERMI =   0.00
   ISMEAR =     0;   SIGMA  =   0.10  broadening in eV -4-tet -1-fermi 0-gaus

 Electronic relaxation 2 (details)
   IALGO  =     68    algorithm
   LDIAG  =      T    sub-space diagonalisation (order eigenvalues)
   LSUBROT=      F    optimize rotation matrix (better conditioning)
   TURBO    =      0    0=normal 1=particle mesh
   IRESTART =      0    0=no restart 2=restart with 2 vectors
   NREBOOT  =      0    no. of reboots
   NMIN     =      0    reboot dimension
   EREF     =   0.00    reference energy to select bands
   IMIX   =      4    mixing-type and parameters
     AMIX     =   0.40;   BMIX     =  1.00
     AMIX_MAG =   1.60;   BMIX_MAG =  1.00
     AMIN     =   0.10
     WC   =   100.;   INIMIX=   1;  MIXPRE=   1;  MAXMIX= -45

 Intra band minimization:
   WEIMIN = 0.0000     energy-eigenvalue tresh-hold
   EBREAK =  0.89E-08  absolut break condition
   DEPER  =   0.30     relativ break condition  

   TIME   =   0.40     timestep for ELM

  volume/ion in A,a.u.               =      34.77       234.66
  Fermi-wavevector in a.u.,A,eV,Ry     =   1.043297  1.971546 14.809520  1.088469
  Thomas-Fermi vector in A             =   2.178000
 
 Write flags
   LWAVE        =      F    write WAVECAR
   LDOWNSAMPLE  =      F    k-point downsampling of WAVECAR
   LCHARG       =      T    write CHGCAR
   LVTOT        =      F    write LOCPOT, total local potential
   LVHAR        =      F    write LOCPOT, Hartree potential only
   LELF         =      T    write electronic localiz. function (ELF)
   LORBIT       =     11    0 simple, 1 ext, 2 COOP (PROOUT), +10 PAW based schemes


 Dipole corrections
   LMONO  =      F    monopole corrections only (constant potential shift)
   LDIPOL =      F    correct potential (dipole corrections)
   IDIPOL =      0    1-x, 2-y, 3-z, 4-all directions 
   EPSILON=  1.0000000 bulk dielectric constant

 Exchange correlation treatment:
   GGA     =    --    GGA type
   LEXCH   =     8    internal setting for exchange type
   VOSKOWN=      0    Vosko Wilk Nusair interpolation
   LHFCALC =     F    Hartree Fock is set to
   LHFONE  =     F    Hartree Fock one center treatment
   AEXX    =    0.0000 exact exchange contribution

 Linear response parameters
   LEPSILON=     F    determine dielectric tensor
   LRPA    =     F    only Hartree local field effects (RPA)
   LNABLA  =     F    use nabla operator in PAW spheres
   LVEL    =     F    velocity operator in full k-point grid
   LINTERFAST=   F  fast interpolation
   KINTER  =     0    interpolate to denser k-point grid
   CSHIFT  =0.1000    complex shift for real part using Kramers Kronig
   OMEGAMAX=  -1.0    maximum frequency
   DEG_THRESHOLD= 0.2000000E-02 threshold for treating states as degnerate
   RTIME   =   -0.100 relaxation time in fs
  (WPLASMAI=    0.000 imaginary part of plasma frequency in eV, 0.658/RTIME)
   DFIELD  = 0.0000000 0.0000000 0.0000000 field for delta impulse in time
 
 Orbital magnetization related:
   ORBITALMAG=     F  switch on orbital magnetization
   LCHIMAG   =     F  perturbation theory with respect to B field
   DQ        =  0.001000  dq finite difference perturbation B field
   LLRAUG    =     F  two centre corrections for induced B field



--------------------------------------------------------------------------------------------------------


 Static calculation
 charge density and potential will be updated during run
 non-spin polarized calculation
 RMM-DIIS sequential band-by-band and
  variant of blocked Davidson during initial phase
 perform sub-space diagonalisation
    before iterative eigenvector-optimisation
 modified Broyden-mixing scheme, WC =      100.0
 initial mixing is a Kerker type mixing with AMIX =  0.4000 and BMIX =      1.0000
 Hartree-type preconditioning will be used
 using additional bands            5
 real space projection scheme for non local part
 use partial core corrections
 calculate Harris-corrections to forces 
   (improved forces if not selfconsistent)
 use gradient corrections 
 use of overlap-Matrix (Vanderbilt PP)
 Gauss-broadening in eV      SIGMA  =   0.10


--------------------------------------------------------------------------------------------------------


  energy-cutoff  :      250.00
  volume of cell :      173.87
      direct lattice vectors                 reciprocal lattice vectors
     2.573868684  0.000000000  0.000000000     0.388520209 -0.224312248  0.000000000
     1.286934342  2.229035666  0.000000000     0.000000000  0.448624495  0.000000000
     0.000000000  0.000000000 30.304664940     0.000000000  0.000000000  0.032998220

  length of vectors
     2.573868684  2.573868684 30.304664940     0.448624495  0.448624495  0.032998220


 
 k-points in units of 2pi/SCALE and weight: k-density: 4.0                          
   0.00000000  0.00000000  0.00000000       0.010
   0.03885202 -0.02243122  0.00000000       0.020
   0.07770404 -0.04486245  0.00000000       0.020
   0.11655606 -0.06729367  0.00000000       0.020
   0.15540808 -0.08972490  0.00000000       0.020
   0.19426010 -0.11215612  0.00000000       0.010
   0.00000000  0.04486245  0.00000000       0.020
   0.03885202  0.02243122  0.00000000       0.020
   0.07770404 -0.00000000  0.00000000       0.020
   0.11655606 -0.02243122  0.00000000       0.020
   0.15540808 -0.04486245  0.00000000       0.020
   0.19426010 -0.06729367  0.00000000       0.020
  -0.15540808  0.13458735  0.00000000       0.020
  -0.11655606  0.11215612  0.00000000       0.020
  -0.07770404  0.08972490  0.00000000       0.020
  -0.03885202  0.06729367  0.00000000       0.020
   0.00000000  0.08972490  0.00000000       0.020
   0.03885202  0.06729367  0.00000000       0.020
   0.07770404  0.04486245  0.00000000       0.020
   0.11655606  0.02243122  0.00000000       0.020
   0.15540808  0.00000000  0.00000000       0.020
   0.19426010 -0.02243122  0.00000000       0.020
  -0.15540808  0.17944980  0.00000000       0.020
  -0.11655606  0.15701857  0.00000000       0.020
  -0.07770404  0.13458735  0.00000000       0.020
  -0.03885202  0.11215612  0.00000000       0.020
   0.00000000  0.13458735  0.00000000       0.020
   0.03885202  0.11215612  0.00000000       0.020
   0.07770404  0.08972490  0.00000000       0.020
   0.11655606  0.06729367  0.00000000       0.020
   0.15540808  0.04486245  0.00000000       0.020
   0.19426010  0.02243122  0.00000000       0.020
  -0.15540808  0.22431225  0.00000000       0.020
  -0.11655606  0.20188102  0.00000000       0.020
  -0.07770404  0.17944980  0.00000000       0.020
  -0.03885202  0.15701857  0.00000000       0.020
   0.00000000  0.17944980  0.00000000       0.020
   0.03885202  0.15701857  0.00000000       0.020
   0.07770404  0.13458735  0.00000000       0.020
   0.11655606  0.11215612  0.00000000       0.020
   0.15540808  0.08972490  0.00000000       0.020
   0.19426010  0.06729367  0.00000000       0.020
  -0.15540808  0.26917470  0.00000000       0.020
  -0.11655606  0.24674347  0.00000000       0.020
  -0.07770404  0.22431225  0.00000000       0.020
  -0.03885202  0.20188102  0.00000000       0.020
   0.00000000  0.22431225  0.00000000       0.010
   0.03885202  0.20188102  0.00000000       0.020
   0.07770404  0.17944980  0.00000000       0.020
   0.11655606  0.15701857  0.00000000       0.020
   0.15540808  0.13458735  0.00000000       0.020
   0.19426010  0.11215612  0.00000000       0.010
 
 k-points in reciprocal lattice and weights: k-density: 4.0                          
   0.00000000  0.00000000  0.00000000       0.010
   0.10000000  0.00000000  0.00000000       0.020
   0.20000000 -0.00000000  0.00000000       0.020
   0.30000000 -0.00000000  0.00000000       0.020
   0.40000000 -0.00000000  0.00000000       0.020
   0.50000000 -0.00000000  0.00000000       0.010
   0.00000000  0.10000000  0.00000000       0.020
   0.10000000  0.10000000  0.00000000       0.020
   0.20000000  0.10000000  0.00000000       0.020
   0.30000000  0.10000000  0.00000000       0.020
   0.40000000  0.10000000  0.00000000       0.020
   0.50000000  0.10000000  0.00000000       0.020
  -0.40000000  0.10000000  0.00000000       0.020
  -0.30000000  0.10000000  0.00000000       0.020
  -0.20000000  0.10000000  0.00000000       0.020
  -0.10000000  0.10000000  0.00000000       0.020
   0.00000000  0.20000000  0.00000000       0.020
   0.10000000  0.20000000  0.00000000       0.020
   0.20000000  0.20000000  0.00000000       0.020
   0.30000000  0.20000000  0.00000000       0.020
   0.40000000  0.20000000  0.00000000       0.020
   0.50000000  0.20000000  0.00000000       0.020
  -0.40000000  0.20000000  0.00000000       0.020
  -0.30000000  0.20000000  0.00000000       0.020
  -0.20000000  0.20000000  0.00000000       0.020
  -0.10000000  0.20000000  0.00000000       0.020
   0.00000000  0.30000000  0.00000000       0.020
   0.10000000  0.30000000  0.00000000       0.020
   0.20000000  0.30000000  0.00000000       0.020
   0.30000000  0.30000000  0.00000000       0.020
   0.40000000  0.30000000  0.00000000       0.020
   0.50000000  0.30000000  0.00000000       0.020
  -0.40000000  0.30000000  0.00000000       0.020
  -0.30000000  0.30000000  0.00000000       0.020
  -0.20000000  0.30000000  0.00000000       0.020
  -0.10000000  0.30000000  0.00000000       0.020
   0.00000000  0.40000000  0.00000000       0.020
   0.10000000  0.40000000  0.00000000       0.020
   0.20000000  0.40000000  0.00000000       0.020
   0.30000000  0.40000000  0.00000000       0.020
   0.40000000  0.40000000  0.00000000       0.020
   0.50000000  0.40000000  0.00000000       0.020
  -0.40000000  0.40000000  0.00000000       0.020
  -0.30000000  0.40000000  0.00000000       0.020
  -0.20000000  0.40000000  0.00000000       0.020
  -0.10000000  0.40000000  0.00000000       0.020
   0.00000000  0.50000000  0.00000000       0.010
   0.10000000  0.50000000  0.00000000       0.020
   0.20000000  0.50000000  0.00000000       0.020
   0.30000000  0.50000000  0.00000000       0.020
   0.40000000  0.50000000  0.00000000       0.020
   0.50000000  0.50000000  0.00000000       0.010
 
 position of ions in fractional coordinates (direct lattice) 
   0.00000000  0.00000000  0.39597864
   0.33333333  0.33333333  0.46532621
   0.66666666  0.66666667  0.53467379
   0.00000000  0.00000000  0.60402136
   0.29448131  0.33333333  0.63701958
 
 position of ions in cartesian coordinates  (Angst):
   0.00000000  0.00000000 12.00000000
   1.28693434  0.74301189 14.10155498
   2.57386868  1.48602378 16.20310996
   0.00000000  0.00000000 18.30466494
   1.18693434  0.74301189 19.30466494
 


--------------------------------------------------------------------------------------------------------


 k-point  1 :   0.0000 0.0000 0.0000  plane waves:    1609
 k-point  2 :   0.1000 0.0000 0.0000  plane waves:    1589
 k-point  3 :   0.2000-0.0000 0.0000  plane waves:    1586
 k-point  4 :   0.3000-0.0000 0.0000  plane waves:    1542
 k-point  5 :   0.4000-0.0000 0.0000  plane waves:    1568
 k-point  6 :   0.5000-0.0000 0.0000  plane waves:    1570
 k-point  7 :   0.0000 0.1000 0.0000  plane waves:    1589
 k-point  8 :   0.1000 0.1000 0.0000  plane waves:    1589
 k-point  9 :   0.2000 0.1000 0.0000  plane waves:    1579
 k-point 10 :   0.3000 0.1000 0.0000  plane waves:    1569
 k-point 11 :   0.4000 0.1000 0.0000  plane waves:    1552
 k-point 12 :   0.5000 0.1000 0.0000  plane waves:    1549
 k-point 13 :  -0.4000 0.1000 0.0000  plane waves:    1549
 k-point 14 :  -0.3000 0.1000 0.0000  plane waves:    1552
 k-point 15 :  -0.2000 0.1000 0.0000  plane waves:    1569
 k-point 16 :  -0.1000 0.1000 0.0000  plane waves:    1579
 k-point 17 :   0.0000 0.2000 0.0000  plane waves:    1586
 k-point 18 :   0.1000 0.2000 0.0000  plane waves:    1579
 k-point 19 :   0.2000 0.2000 0.0000  plane waves:    1586
 k-point 20 :   0.3000 0.2000 0.0000  plane waves:    1569
 k-point 21 :   0.4000 0.2000 0.0000  plane waves:    1545
 k-point 22 :   0.5000 0.2000 0.0000  plane waves:    1549
 k-point 23 :  -0.4000 0.2000 0.0000  plane waves:    1546
 k-point 24 :  -0.3000 0.2000 0.0000  plane waves:    1549
 k-point 25 :  -0.2000 0.2000 0.0000  plane waves:    1545
 k-point 26 :  -0.1000 0.2000 0.0000  plane waves:    1569
 k-point 27 :   0.0000 0.3000 0.0000  plane waves:    1542
 k-point 28 :   0.1000 0.3000 0.0000  plane waves:    1569
 k-point 29 :   0.2000 0.3000 0.0000  plane waves:    1569
 k-point 30 :   0.3000 0.3000 0.0000  plane waves:    1542
 k-point 31 :   0.4000 0.3000 0.0000  plane waves:    1552
 k-point 32 :   0.5000 0.3000 0.0000  plane waves:    1549
 k-point 33 :  -0.4000 0.3000 0.0000  plane waves:    1547
 k-point 34 :  -0.3000 0.3000 0.0000  plane waves:    1547
 k-point 35 :  -0.2000 0.3000 0.0000  plane waves:    1549
 k-point 36 :  -0.1000 0.3000 0.0000  plane waves:    1552
 k-point 37 :   0.0000 0.4000 0.0000  plane waves:    1568
 k-point 38 :   0.1000 0.4000 0.0000  plane waves:    1552
 k-point 39 :   0.2000 0.4000 0.0000  plane waves:    1545
 k-point 40 :   0.3000 0.4000 0.0000  plane waves:    1552
 k-point 41 :   0.4000 0.4000 0.0000  plane waves:    1568
 k-point 42 :   0.5000 0.4000 0.0000  plane waves:    1549
 k-point 43 :  -0.4000 0.4000 0.0000  plane waves:    1546
 k-point 44 :  -0.3000 0.4000 0.0000  plane waves:    1547
 k-point 45 :  -0.2000 0.4000 0.0000  plane waves:    1546
 k-point 46 :  -0.1000 0.4000 0.0000  plane waves:    1549
 k-point 47 :   0.0000 0.5000 0.0000  plane waves:    1570
 k-point 48 :   0.1000 0.5000 0.0000  plane waves:    1549
 k-point 49 :   0.2000 0.5000 0.0000  plane waves:    1549
 k-point 50 :   0.3000 0.5000 0.0000  plane waves:    1549
 k-point 51 :   0.4000 0.5000 0.0000  plane waves:    1549
 k-point 52 :   0.5000 0.5000 0.0000  plane waves:    1570

 maximum and minimum number of plane-waves per node :       808      766

 maximum number of plane-waves:      1609
 maximum index in each direction: 
   IXMAX=    3   IYMAX=    3   IZMAX=   39
   IXMIN=   -3   IYMIN=   -3   IZMIN=  -39


 real space projection operators:
  total allocation   :        839.52 KBytes
  max/ min on nodes  :        423.05        416.47


 parallel 3D FFT for wavefunctions:
    minimum data exchange during FFTs selected (reduces bandwidth)
 parallel 3D FFT for charge:
    minimum data exchange during FFTs selected (reduces bandwidth)


 total amount of memory used by VASP MPI-rank0    43138. kBytes
=======================================================================

   base      :      30000. kBytes
   nonlr-proj:        675. kBytes
   fftplans  :        995. kBytes
   grid      :       1592. kBytes
   one-center:         46. kBytes
   wavefun   :       9830. kBytes
 
     INWAV:  cpu time    0.0000: real time    0.0000
 Broyden mixing: mesh for mixing (old mesh)
   NGX =  7   NGY =  7   NGZ = 79
  (NGX  = 20   NGY  = 20   NGZ  =240)
  gives a total of   3871 points

 initial charge density was supplied:
 charge density of overlapping atoms calculated
 number of electron      45.0000000 magnetization 
 keeping initial charge density in first step


--------------------------------------------------------------------------------------------------------


 Maximum index for non-local projection operator          894
 Maximum index for augmentation-charges          593 (set IRDMAX)


--------------------------------------------------------------------------------------------------------


 First call to EWALD:  gamma=   0.318
 Maximum number of real-space cells 6x 6x 1
 Maximum number of reciprocal cells 2x 2x13

    FEWALD:  cpu time    0.0010: real time    0.0015


--------------------------------------- Iteration      1(   1)  ---------------------------------------


    POTLOK:  cpu time    0.0160: real time    0.0616
    SETDIJ:  cpu time    0.0030: real time    0.0033
     EDDAV:  cpu time    1.0948: real time    1.0955
       DOS:  cpu time    0.0090: real time    0.0085
    --------------------------------------------
      LOOP:  cpu time    1.1228: real time    1.1689

 eigenvalue-minimisations  :  3024
 total energy-change (2. order) : 0.1967482E+03  (-0.1388036E+04)
 number of electron      45.0000000 magnetization 
 augmentation part       45.0000000 magnetization 

 Free energy of the ion-electron system (eV)
  ---------------------------------------------------
  alpha Z        PSCENC =       120.87645803
  Ewald energy   TEWEN  =     38004.97643518
  -Hartree energ DENC   =    -43126.69725618
  -exchange      EXHF   =         0.00000000
  -V(xc)+E(xc)   XCENC  =       177.39040761
  PAW double counting   =      4328.99049516    -4905.09836044
  entropy T*S    EENTRO =        -0.00941537
  eigenvalues    EBANDS =        20.36980180
  atomic energy  EATOM  =      5575.94961827
  Solvation  Ediel_sol  =         0.00000000
  ---------------------------------------------------
  free energy    TOTEN  =       196.74818406 eV

  energy without entropy =      196.75759943  energy(sigma->0) =      196.75289175


--------------------------------------------------------------------------------------------------------




--------------------------------------- Iteration      1(   2)  ---------------------------------------


     EDDAV:  cpu time    1.1098: real time    1.1140
       DOS:  cpu time    0.0090: real time    0.0097
    --------------------------------------------
      LOOP:  cpu time    1.1188: real time    1.1237

 eigenvalue-minimisations  :  3084
 total energy-change (2. order) :-0.2075666E+03  (-0.2013078E+03)
 number of electron      45.0000000 magnetization 
 augmentation part       45.0000000 magnetization 

 Free energy of the ion-electron system (eV)
  ---------------------------------------------------
  alpha Z        PSCENC =       120.87645803
  Ewald energy   TEWEN  =     38004.97643518
  -Hartree energ DENC   =    -43126.69725618
  -exchange      EXHF   =         0.00000000
  -V(xc)+E(xc)   XCENC  =       177.39040761
  PAW double counting   =      4328.99049516    -4905.09836044
  entropy T*S    EENTRO =        -0.01128409
  eigenvalues    EBANDS =      -187.19496869
  atomic energy  EATOM  =      5575.94961827
  Solvation  Ediel_sol  =         0.00000000
  ---------------------------------------------------
  free energy    TOTEN  =       -10.81845515 eV

  energy without entropy =      -10.80717106  energy(sigma->0) =      -10.81281310


--------------------------------------------------------------------------------------------------------




--------------------------------------- Iteration      1(   3)  ---------------------------------------


     EDDAV:  cpu time    1.1508: real time    1.1526
       DOS:  cpu time    0.0090: real time    0.0095
    --------------------------------------------
      LOOP:  cpu time    1.1598: real time    1.1622

 eigenvalue-minimisations  :  3232
 total energy-change (2. order) :-0.1017205E+02  (-0.1002730E+02)
 number of electron      45.0000000 magnetization 
 augmentation part       45.0000000 magnetization 

 Free energy of the ion-electron system (eV)
  ---------------------------------------------------
  alpha Z        PSCENC =       120.87645803
  Ewald energy   TEWEN  =     38004.97643518
  -Hartree energ DENC   =    -43126.69725618
  -exchange      EXHF   =         0.00000000
  -V(xc)+E(xc)   XCENC  =       177.39040761
  PAW double counting   =      4328.99049516    -4905.09836044
  entropy T*S    EENTRO =        -0.01182167
  eigenvalues    EBANDS =      -197.36647998
  atomic energy  EATOM  =      5575.94961827
  Solvation  Ediel_sol  =         0.00000000
  ---------------------------------------------------
  free energy    TOTEN  =       -20.99050402 eV

  energy without entropy =      -20.97868235  energy(sigma->0) =      -20.98459319


--------------------------------------------------------------------------------------------------------




--------------------------------------- Iteration      1(   4)  ---------------------------------------


     EDDAV:  cpu time    1.1358: real time    1.1361
       DOS:  cpu time    0.0090: real time    0.0096
    --------------------------------------------
      LOOP:  cpu time    1.1448: real time    1.1456

 eigenvalue-minimisations  :  3168
 total energy-change (2. order) :-0.1096177E+00  (-0.1092891E+00)
 number of electron      45.0000000 magnetization 
 augmentation part       45.0000000 magnetization 

 Free energy of the ion-electron system (eV)
  ---------------------------------------------------
  alpha Z        PSCENC =       120.87645803
  Ewald energy   TEWEN  =     38004.97643518
  -Hartree energ DENC   =    -43126.69725618
  -exchange      EXHF   =         0.00000000
  -V(xc)+E(xc)   XCENC  =       177.39040761
  PAW double counting   =      4328.99049516    -4905.09836044
  entropy T*S    EENTRO =        -0.01138922
  eigenvalues    EBANDS =      -197.47653013
  atomic energy  EATOM  =      5575.94961827
  Solvation  Ediel_sol  =         0.00000000
  ---------------------------------------------------
  free energy    TOTEN  =       -21.10012172 eV

  energy without entropy =      -21.08873250  energy(sigma->0) =      -21.09442711


--------------------------------------------------------------------------------------------------------




--------------------------------------- Iteration      1(   5)  ---------------------------------------


     EDDAV:  cpu time    1.1658: real time    1.1659
       DOS:  cpu time    0.0090: real time    0.0095
    CHARGE:  cpu time    0.0600: real time    0.0593
    MIXING:  cpu time    0.0000: real time    0.0005
    --------------------------------------------
      LOOP:  cpu time    1.2348: real time    1.2352

 eigenvalue-minimisations  :  3312
 total energy-change (2. order) :-0.1151500E-02  (-0.1151425E-02)
 number of electron      45.0000036 magnetization 
 augmentation part       26.6986243 magnetization 

 Broyden mixing:
  rms(total) = 0.14610E+01    rms(broyden)= 0.14607E+01
  rms(prec ) = 0.15117E+01
  weight for this iteration     100.00

 Free energy of the ion-electron system (eV)
  ---------------------------------------------------
  alpha Z        PSCENC =       120.87645803
  Ewald energy   TEWEN  =     38004.97643518
  -Hartree energ DENC   =    -43126.69725618
  -exchange      EXHF   =         0.00000000
  -V(xc)+E(xc)   XCENC  =       177.39040761
  PAW double counting   =      4328.99049516    -4905.09836044
  entropy T*S    EENTRO =        -0.01139024
  eigenvalues    EBANDS =      -197.47768061
  atomic energy  EATOM  =      5575.94961827
  Solvation  Ediel_sol  =         0.00000000
  ---------------------------------------------------
  free energy    TOTEN  =       -21.10127322 eV

  energy without entropy =      -21.08988298  energy(sigma->0) =      -21.09557810


--------------------------------------------------------------------------------------------------------




--------------------------------------- Iteration      1(   6)  ---------------------------------------


    POTLOK:  cpu time    0.0120: real time    0.0130
    SETDIJ:  cpu time    0.0030: real time    0.0033
    EDDIAG:  cpu time    0.2140: real time    0.2146
  RMM-DIIS:  cpu time    0.6419: real time    0.6411
    ORTHCH:  cpu time    0.0250: real time    0.0254
       DOS:  cpu time    0.0090: real time    0.0098
    CHARGE:  cpu time    0.0580: real time    0.0580
    MIXING:  cpu time    0.0020: real time    0.0005
    --------------------------------------------
      LOOP:  cpu time    0.9649: real time    0.9657

 eigenvalue-minimisations  :  3161
 total energy-change (2. order) : 0.2048322E+01  (-0.4337558E+01)
 number of electron      45.0000039 magnetization 
 augmentation part       30.0414260 magnetization 

 Broyden mixing:
  rms(total) = 0.74178E+00    rms(broyden)= 0.74153E+00
  rms(prec ) = 0.77174E+00
  weight for this iteration     100.00

 eigenvalues of (default mixing * dielectric matrix)
  average eigenvalue GAMMA=   0.6665
  0.6665

 Free energy of the ion-electron system (eV)
  ---------------------------------------------------
  alpha Z        PSCENC =       120.87645803
  Ewald energy   TEWEN  =     38004.97643518
  -Hartree energ DENC   =    -43009.94539488
  -exchange      EXHF   =         0.00000000
  -V(xc)+E(xc)   XCENC  =       172.23938594
  PAW double counting   =      4214.29362260    -4755.24051222
  entropy T*S    EENTRO =        -0.01236513
  eigenvalues    EBANDS =      -342.19019911
  atomic energy  EATOM  =      5575.94961827
  Solvation  Ediel_sol  =         0.00000000
  ---------------------------------------------------
  free energy    TOTEN  =       -19.05295133 eV

  energy without entropy =      -19.04058619  energy(sigma->0) =      -19.04676876


--------------------------------------------------------------------------------------------------------




--------------------------------------- Iteration      1(   7)  ---------------------------------------


    POTLOK:  cpu time    0.0110: real time    0.0113
    SETDIJ:  cpu time    0.0030: real time    0.0033
    EDDIAG:  cpu time    0.2070: real time    0.2102
  RMM-DIIS:  cpu time    0.6209: real time    0.6201
    ORTHCH:  cpu time    0.0240: real time    0.0243
       DOS:  cpu time    0.0090: real time    0.0093
    CHARGE:  cpu time    0.0570: real time    0.0568
    MIXING:  cpu time    0.0010: real time    0.0005
    --------------------------------------------
      LOOP:  cpu time    0.9329: real time    0.9356

 eigenvalue-minimisations  :  3155
 total energy-change (2. order) : 0.1736989E+01  (-0.7118052E+00)
 number of electron      45.0000037 magnetization 
 augmentation part       28.7290482 magnetization 

 Broyden mixing:
  rms(total) = 0.16931E+00    rms(broyden)= 0.16903E+00
  rms(prec ) = 0.22472E+00
  weight for this iteration     100.00

 eigenvalues of (default mixing * dielectric matrix)
  average eigenvalue GAMMA=   0.6873
  0.8283  0.5463

 Free energy of the ion-electron system (eV)
  ---------------------------------------------------
  alpha Z        PSCENC =       120.87645803
  Ewald energy   TEWEN  =     38004.97643518
  -Hartree energ DENC   =    -43058.30537992
  -exchange      EXHF   =         0.00000000
  -V(xc)+E(xc)   XCENC  =       173.91337835
  PAW double counting   =      4312.71395576    -4878.18955204
  entropy T*S    EENTRO =        -0.01190999
  eigenvalues    EBANDS =      -269.23896571
  atomic energy  EATOM  =      5575.94961827
  Solvation  Ediel_sol  =         0.00000000
  ---------------------------------------------------
  free energy    TOTEN  =       -17.31596207 eV

  energy without entropy =      -17.30405208  energy(sigma->0) =      -17.31000708


--------------------------------------------------------------------------------------------------------




--------------------------------------- Iteration      1(   8)  ---------------------------------------


    POTLOK:  cpu time    0.0110: real time    0.0140
    SETDIJ:  cpu time    0.0030: real time    0.0031
    EDDIAG:  cpu time    0.2050: real time    0.2051
  RMM-DIIS:  cpu time    0.6309: real time    0.6309
    ORTHCH:  cpu time    0.0240: real time    0.0243
       DOS:  cpu time    0.0090: real time    0.0093
    CHARGE:  cpu time    0.0570: real time    0.0572
    MIXING:  cpu time    0.0020: real time    0.0005
    --------------------------------------------
      LOOP:  cpu time    0.9419: real time    0.9445

 eigenvalue-minimisations  :  3205
 total energy-change (2. order) : 0.2647538E-01  (-0.1277303E-01)
 number of electron      45.0000038 magnetization 
 augmentation part       28.7353958 magnetization 

 Broyden mixing:
  rms(total) = 0.18511E+00    rms(broyden)= 0.18497E+00
  rms(prec ) = 0.23546E+00
  weight for this iteration     100.00

 eigenvalues of (default mixing * dielectric matrix)
  average eigenvalue GAMMA=   0.8253
  1.6650  0.6200  0.1909

 Free energy of the ion-electron system (eV)
  ---------------------------------------------------
  alpha Z        PSCENC =       120.87645803
  Ewald energy   TEWEN  =     38004.97643518
  -Hartree energ DENC   =    -43060.46545194
  -exchange      EXHF   =         0.00000000
  -V(xc)+E(xc)   XCENC  =       173.82225235
  PAW double counting   =      4329.11555297    -4897.10300483
  entropy T*S    EENTRO =        -0.01931836
  eigenvalues    EBANDS =      -264.44202836
  atomic energy  EATOM  =      5575.94961827
  Solvation  Ediel_sol  =         0.00000000
  ---------------------------------------------------
  free energy    TOTEN  =       -17.28948669 eV

  energy without entropy =      -17.27016833  energy(sigma->0) =      -17.27982751


--------------------------------------------------------------------------------------------------------




--------------------------------------- Iteration      1(   9)  ---------------------------------------


    POTLOK:  cpu time    0.0100: real time    0.0108
    SETDIJ:  cpu time    0.0030: real time    0.0032
    EDDIAG:  cpu time    0.2070: real time    0.2068
  RMM-DIIS:  cpu time    0.6259: real time    0.6251
    ORTHCH:  cpu time    0.0230: real time    0.0242
       DOS:  cpu time    0.0100: real time    0.0092
    CHARGE:  cpu time    0.0560: real time    0.0570
    MIXING:  cpu time    0.0020: real time    0.0006
    --------------------------------------------
      LOOP:  cpu time    0.9369: real time    0.9370

 eigenvalue-minimisations  :  3193
 total energy-change (2. order) : 0.9186384E-01  (-0.6663162E-02)
 number of electron      45.0000038 magnetization 
 augmentation part       28.7260160 magnetization 

 Broyden mixing:
  rms(total) = 0.71730E-01    rms(broyden)= 0.71649E-01
  rms(prec ) = 0.75714E-01
  weight for this iteration     100.00

 eigenvalues of (default mixing * dielectric matrix)
  average eigenvalue GAMMA=   0.8137
  1.8280  0.6048  0.6048  0.2172

 Free energy of the ion-electron system (eV)
  ---------------------------------------------------
  alpha Z        PSCENC =       120.87645803
  Ewald energy   TEWEN  =     38004.97643518
  -Hartree energ DENC   =    -43061.87637430
  -exchange      EXHF   =         0.00000000
  -V(xc)+E(xc)   XCENC  =       173.59770158
  PAW double counting   =      4363.97280933    -4937.04567080
  entropy T*S    EENTRO =        -0.01791883
  eigenvalues    EBANDS =      -257.63068133
  atomic energy  EATOM  =      5575.94961827
  Solvation  Ediel_sol  =         0.00000000
  ---------------------------------------------------
  free energy    TOTEN  =       -17.19762285 eV

  energy without entropy =      -17.17970403  energy(sigma->0) =      -17.18866344


--------------------------------------------------------------------------------------------------------




--------------------------------------- Iteration      1(  10)  ---------------------------------------


    POTLOK:  cpu time    0.0110: real time    0.0127
    SETDIJ:  cpu time    0.0030: real time    0.0031
    EDDIAG:  cpu time    0.2050: real time    0.2056
  RMM-DIIS:  cpu time    0.6239: real time    0.6236
    ORTHCH:  cpu time    0.0240: real time    0.0243
       DOS:  cpu time    0.0100: real time    0.0093
    CHARGE:  cpu time    0.0570: real time    0.0571
    MIXING:  cpu time    0.0010: real time    0.0006
    --------------------------------------------
      LOOP:  cpu time    0.9349: real time    0.9363

 eigenvalue-minimisations  :  3214
 total energy-change (2. order) : 0.9561769E-02  (-0.1990442E-02)
 number of electron      45.0000038 magnetization 
 augmentation part       28.7503683 magnetization 

 Broyden mixing:
  rms(total) = 0.44361E-01    rms(broyden)= 0.44353E-01
  rms(prec ) = 0.47820E-01
  weight for this iteration     100.00

 eigenvalues of (default mixing * dielectric matrix)
  average eigenvalue GAMMA=   0.8770
  2.2355  0.8597  0.6734  0.2160  0.4003

 Free energy of the ion-electron system (eV)
  ---------------------------------------------------
  alpha Z        PSCENC =       120.87645803
  Ewald energy   TEWEN  =     38004.97643518
  -Hartree energ DENC   =    -43063.70928450
  -exchange      EXHF   =         0.00000000
  -V(xc)+E(xc)   XCENC  =       173.46215496
  PAW double counting   =      4377.26398154    -4951.87150443
  entropy T*S    EENTRO =        -0.01979819
  eigenvalues    EBANDS =      -254.11612195
  atomic energy  EATOM  =      5575.94961827
  Solvation  Ediel_sol  =         0.00000000
  ---------------------------------------------------
  free energy    TOTEN  =       -17.18806108 eV

  energy without entropy =      -17.16826290  energy(sigma->0) =      -17.17816199


--------------------------------------------------------------------------------------------------------




--------------------------------------- Iteration      1(  11)  ---------------------------------------


    POTLOK:  cpu time    0.0100: real time    0.0110
    SETDIJ:  cpu time    0.0040: real time    0.0032
    EDDIAG:  cpu time    0.2060: real time    0.2064
  RMM-DIIS:  cpu time    0.6319: real time    0.6321
    ORTHCH:  cpu time    0.0240: real time    0.0244
       DOS:  cpu time    0.0100: real time    0.0093
    CHARGE:  cpu time    0.0560: real time    0.0563
    MIXING:  cpu time    0.0010: real time    0.0006
    --------------------------------------------
      LOOP:  cpu time    0.9429: real time    0.9433

 eigenvalue-minimisations  :  3203
 total energy-change (2. order) : 0.5178775E-02  (-0.8140775E-03)
 number of electron      45.0000038 magnetization 
 augmentation part       28.7785216 magnetization 

 Broyden mixing:
  rms(total) = 0.15751E-01    rms(broyden)= 0.15740E-01
  rms(prec ) = 0.19267E-01
  weight for this iteration     100.00

 eigenvalues of (default mixing * dielectric matrix)
  average eigenvalue GAMMA=   0.9456
  2.3492  1.3797  0.6716  0.6716  0.2146  0.3873

 Free energy of the ion-electron system (eV)
  ---------------------------------------------------
  alpha Z        PSCENC =       120.87645803
  Ewald energy   TEWEN  =     38004.97643518
  -Hartree energ DENC   =    -43064.06049056
  -exchange      EXHF   =         0.00000000
  -V(xc)+E(xc)   XCENC  =       173.36424160
  PAW double counting   =      4386.23795846    -4961.78074618
  entropy T*S    EENTRO =        -0.01870387
  eigenvalues    EBANDS =      -252.72765324
  atomic energy  EATOM  =      5575.94961827
  Solvation  Ediel_sol  =         0.00000000
  ---------------------------------------------------
  free energy    TOTEN  =       -17.18288231 eV

  energy without entropy =      -17.16417844  energy(sigma->0) =      -17.17353037


--------------------------------------------------------------------------------------------------------




--------------------------------------- Iteration      1(  12)  ---------------------------------------


    POTLOK:  cpu time    0.0110: real time    0.0130
    SETDIJ:  cpu time    0.0030: real time    0.0031
    EDDIAG:  cpu time    0.2040: real time    0.2039
  RMM-DIIS:  cpu time    0.6139: real time    0.6139
    ORTHCH:  cpu time    0.0230: real time    0.0236
       DOS:  cpu time    0.0100: real time    0.0089
    CHARGE:  cpu time    0.0540: real time    0.0552
    MIXING:  cpu time    0.0020: real time    0.0006
    --------------------------------------------
      LOOP:  cpu time    0.9209: real time    0.9223

 eigenvalue-minimisations  :  3204
 total energy-change (2. order) : 0.9523623E-03  (-0.1967710E-03)
 number of electron      45.0000038 magnetization 
 augmentation part       28.7926767 magnetization 

 Broyden mixing:
  rms(total) = 0.10567E-01    rms(broyden)= 0.10552E-01
  rms(prec ) = 0.12848E-01
  weight for this iteration     100.00

 eigenvalues of (default mixing * dielectric matrix)
  average eigenvalue GAMMA=   0.9947
  2.1601  2.1601  0.9333  0.6547  0.2145  0.4645  0.3753

 Free energy of the ion-electron system (eV)
  ---------------------------------------------------
  alpha Z        PSCENC =       120.87645803
  Ewald energy   TEWEN  =     38004.97643518
  -Hartree energ DENC   =    -43066.19582532
  -exchange      EXHF   =         0.00000000
  -V(xc)+E(xc)   XCENC  =       173.33229024
  PAW double counting   =      4389.39968875    -4965.10338004
  entropy T*S    EENTRO =        -0.01840852
  eigenvalues    EBANDS =      -250.39880654
  atomic energy  EATOM  =      5575.94961827
  Solvation  Ediel_sol  =         0.00000000
  ---------------------------------------------------
  free energy    TOTEN  =       -17.18192995 eV

  energy without entropy =      -17.16352143  energy(sigma->0) =      -17.17272569


--------------------------------------------------------------------------------------------------------




--------------------------------------- Iteration      1(  13)  ---------------------------------------


    POTLOK:  cpu time    0.0100: real time    0.0109
    SETDIJ:  cpu time    0.0030: real time    0.0031
    EDDIAG:  cpu time    0.2010: real time    0.2003
  RMM-DIIS:  cpu time    0.6199: real time    0.6202
    ORTHCH:  cpu time    0.0240: real time    0.0243
       DOS:  cpu time    0.0090: real time    0.0093
    CHARGE:  cpu time    0.0570: real time    0.0572
    MIXING:  cpu time    0.0010: real time    0.0007
    --------------------------------------------
      LOOP:  cpu time    0.9249: real time    0.9259

 eigenvalue-minimisations  :  3146
 total energy-change (2. order) : 0.4521567E-03  (-0.5635567E-04)
 number of electron      45.0000038 magnetization 
 augmentation part       28.7909724 magnetization 

 Broyden mixing:
  rms(total) = 0.54431E-02    rms(broyden)= 0.54424E-02
  rms(prec ) = 0.79189E-02
  weight for this iteration     100.00

 eigenvalues of (default mixing * dielectric matrix)
  average eigenvalue GAMMA=   1.0404
  2.3283  2.3283  1.2468  0.7930  0.6594  0.2146  0.3952  0.3576

 Free energy of the ion-electron system (eV)
  ---------------------------------------------------
  alpha Z        PSCENC =       120.87645803
  Ewald energy   TEWEN  =     38004.97643518
  -Hartree energ DENC   =    -43067.59613082
  -exchange      EXHF   =         0.00000000
  -V(xc)+E(xc)   XCENC  =       173.33401836
  PAW double counting   =      4390.55493386    -4966.33333438
  entropy T*S    EENTRO =        -0.01858101
  eigenvalues    EBANDS =      -248.92489529
  atomic energy  EATOM  =      5575.94961827
  Solvation  Ediel_sol  =         0.00000000
  ---------------------------------------------------
  free energy    TOTEN  =       -17.18147779 eV

  energy without entropy =      -17.16289678  energy(sigma->0) =      -17.17218728


--------------------------------------------------------------------------------------------------------




--------------------------------------- Iteration      1(  14)  ---------------------------------------


    POTLOK:  cpu time    0.0110: real time    0.0121
    SETDIJ:  cpu time    0.0040: real time    0.0032
    EDDIAG:  cpu time    0.2050: real time    0.2059
  RMM-DIIS:  cpu time    0.6239: real time    0.6230
    ORTHCH:  cpu time    0.0240: real time    0.0243
       DOS:  cpu time    0.0080: real time    0.0092
    CHARGE:  cpu time    0.0570: real time    0.0570
    MIXING:  cpu time    0.0020: real time    0.0007
    --------------------------------------------
      LOOP:  cpu time    0.9349: real time    0.9353

 eigenvalue-minimisations  :  3137
 total energy-change (2. order) : 0.9136229E-04  (-0.3681083E-04)
 number of electron      45.0000038 magnetization 
 augmentation part       28.7824932 magnetization 

 Broyden mixing:
  rms(total) = 0.59064E-02    rms(broyden)= 0.58964E-02
  rms(prec ) = 0.92963E-02
  weight for this iteration     100.00

 eigenvalues of (default mixing * dielectric matrix)
  average eigenvalue GAMMA=   1.0904
  2.6831  2.6831  1.3804  0.8626  0.6737  0.2146  0.5580  0.3994  0.3583

 Free energy of the ion-electron system (eV)
  ---------------------------------------------------
  alpha Z        PSCENC =       120.87645803
  Ewald energy   TEWEN  =     38004.97643518
  -Hartree energ DENC   =    -43070.14784506
  -exchange      EXHF   =         0.00000000
  -V(xc)+E(xc)   XCENC  =       173.34837985
  PAW double counting   =      4391.20996958    -4967.04005849
  entropy T*S    EENTRO =        -0.01908041
  eigenvalues    EBANDS =      -246.33526338
  atomic energy  EATOM  =      5575.94961827
  Solvation  Ediel_sol  =         0.00000000
  ---------------------------------------------------
  free energy    TOTEN  =       -17.18138643 eV

  energy without entropy =      -17.16230602  energy(sigma->0) =      -17.17184622


--------------------------------------------------------------------------------------------------------




--------------------------------------- Iteration      1(  15)  ---------------------------------------


    POTLOK:  cpu time    0.0100: real time    0.0111
    SETDIJ:  cpu time    0.0040: real time    0.0032
    EDDIAG:  cpu time    0.2060: real time    0.2065
  RMM-DIIS:  cpu time    0.6019: real time    0.6016
    ORTHCH:  cpu time    0.0230: real time    0.0236
       DOS:  cpu time    0.0100: real time    0.0092
    CHARGE:  cpu time    0.0550: real time    0.0558
    MIXING:  cpu time    0.0010: real time    0.0007
    --------------------------------------------
      LOOP:  cpu time    0.9109: real time    0.9117

 eigenvalue-minimisations  :  3049
 total energy-change (2. order) :-0.1008194E-04  (-0.1359263E-04)
 number of electron      45.0000038 magnetization 
 augmentation part       28.7864839 magnetization 

 Broyden mixing:
  rms(total) = 0.21816E-02    rms(broyden)= 0.21706E-02
  rms(prec ) = 0.30269E-02
  weight for this iteration     100.00

 eigenvalues of (default mixing * dielectric matrix)
  average eigenvalue GAMMA=   1.1150
  3.0084  2.6605  1.5228  0.8905  0.8905  0.2146  0.6504  0.5449  0.3590  0.4078

 Free energy of the ion-electron system (eV)
  ---------------------------------------------------
  alpha Z        PSCENC =       120.87645803
  Ewald energy   TEWEN  =     38004.97643518
  -Hartree energ DENC   =    -43071.96374755
  -exchange      EXHF   =         0.00000000
  -V(xc)+E(xc)   XCENC  =       173.34803209
  PAW double counting   =      4390.96778437    -4966.72203097
  entropy T*S    EENTRO =        -0.01897357
  eigenvalues    EBANDS =      -244.59497236
  atomic energy  EATOM  =      5575.94961827
  Solvation  Ediel_sol  =         0.00000000
  ---------------------------------------------------
  free energy    TOTEN  =       -17.18139651 eV

  energy without entropy =      -17.16242294  energy(sigma->0) =      -17.17190972


--------------------------------------------------------------------------------------------------------




--------------------------------------- Iteration      1(  16)  ---------------------------------------


    POTLOK:  cpu time    0.0110: real time    0.0123
    SETDIJ:  cpu time    0.0040: real time    0.0032
    EDDIAG:  cpu time    0.2000: real time    0.2003
  RMM-DIIS:  cpu time    0.5829: real time    0.5828
    ORTHCH:  cpu time    0.0230: real time    0.0236
       DOS:  cpu time    0.0100: real time    0.0090
    CHARGE:  cpu time    0.0540: real time    0.0553
    MIXING:  cpu time    0.0020: real time    0.0008
    --------------------------------------------
      LOOP:  cpu time    0.8869: real time    0.8874

 eigenvalue-minimisations  :  3020
 total energy-change (2. order) :-0.1767821E-03  (-0.3614338E-05)
 number of electron      45.0000038 magnetization 
 augmentation part       28.7877553 magnetization 

 Broyden mixing:
  rms(total) = 0.11464E-02    rms(broyden)= 0.11462E-02
  rms(prec ) = 0.17175E-02
  weight for this iteration     100.00

 eigenvalues of (default mixing * dielectric matrix)
  average eigenvalue GAMMA=   1.3199
  4.2168  2.8439  2.2543  1.2438  0.9752  0.8012  0.2146  0.6569  0.5462  0.3607
  0.4051

 Free energy of the ion-electron system (eV)
  ---------------------------------------------------
  alpha Z        PSCENC =       120.87645803
  Ewald energy   TEWEN  =     38004.97643518
  -Hartree energ DENC   =    -43072.83756061
  -exchange      EXHF   =         0.00000000
  -V(xc)+E(xc)   XCENC  =       173.34845983
  PAW double counting   =      4390.59412125    -4966.32020350
  entropy T*S    EENTRO =        -0.01896117
  eigenvalues    EBANDS =      -243.74994058
  atomic energy  EATOM  =      5575.94961827
  Solvation  Ediel_sol  =         0.00000000
  ---------------------------------------------------
  free energy    TOTEN  =       -17.18157329 eV

  energy without entropy =      -17.16261213  energy(sigma->0) =      -17.17209271


--------------------------------------------------------------------------------------------------------




--------------------------------------- Iteration      1(  17)  ---------------------------------------


    POTLOK:  cpu time    0.0100: real time    0.0108
    SETDIJ:  cpu time    0.0040: real time    0.0031
    EDDIAG:  cpu time    0.2000: real time    0.2002
  RMM-DIIS:  cpu time    0.5639: real time    0.5635
    ORTHCH:  cpu time    0.0230: real time    0.0236
       DOS:  cpu time    0.0090: real time    0.0090
    CHARGE:  cpu time    0.0550: real time    0.0557
    MIXING:  cpu time    0.0010: real time    0.0008
    --------------------------------------------
      LOOP:  cpu time    0.8659: real time    0.8667

 eigenvalue-minimisations  :  2904
 total energy-change (2. order) :-0.2744801E-03  (-0.7115944E-05)
 number of electron      45.0000038 magnetization 
 augmentation part       28.7868297 magnetization 

 Broyden mixing:
  rms(total) = 0.61442E-03    rms(broyden)= 0.61360E-03
  rms(prec ) = 0.92167E-03
  weight for this iteration     100.00

 eigenvalues of (default mixing * dielectric matrix)
  average eigenvalue GAMMA=   1.4474
  4.9079  2.9940  2.1505  2.1505  1.2350  0.9215  0.8148  0.2146  0.6569  0.5571
  0.3607  0.4047

 Free energy of the ion-electron system (eV)
  ---------------------------------------------------
  alpha Z        PSCENC =       120.87645803
  Ewald energy   TEWEN  =     38004.97643518
  -Hartree energ DENC   =    -43074.39659204
  -exchange      EXHF   =         0.00000000
  -V(xc)+E(xc)   XCENC  =       173.35224949
  PAW double counting   =      4390.13184211    -4965.86070079
  entropy T*S    EENTRO =        -0.01904190
  eigenvalues    EBANDS =      -242.19211612
  atomic energy  EATOM  =      5575.94961827
  Solvation  Ediel_sol  =         0.00000000
  ---------------------------------------------------
  free energy    TOTEN  =       -17.18184777 eV

  energy without entropy =      -17.16280587  energy(sigma->0) =      -17.17232682


--------------------------------------------------------------------------------------------------------




--------------------------------------- Iteration      1(  18)  ---------------------------------------


    POTLOK:  cpu time    0.0120: real time    0.0133
    SETDIJ:  cpu time    0.0030: real time    0.0031
    EDDIAG:  cpu time    0.2030: real time    0.2034
  RMM-DIIS:  cpu time    0.4599: real time    0.4588
    ORTHCH:  cpu time    0.0230: real time    0.0237
       DOS:  cpu time    0.0090: real time    0.0089
    CHARGE:  cpu time    0.0560: real time    0.0555
    MIXING:  cpu time    0.0000: real time    0.0009
    --------------------------------------------
      LOOP:  cpu time    0.7659: real time    0.7677

 eigenvalue-minimisations  :  2320
 total energy-change (2. order) :-0.1253146E-03  (-0.1223684E-05)
 number of electron      45.0000038 magnetization 
 augmentation part       28.7868431 magnetization 

 Broyden mixing:
  rms(total) = 0.27341E-03    rms(broyden)= 0.27308E-03
  rms(prec ) = 0.42981E-03
  weight for this iteration     100.00

 eigenvalues of (default mixing * dielectric matrix)
  average eigenvalue GAMMA=   1.5684
  5.8473  3.5898  2.3549  2.3549  1.2666  0.9844  0.9844  0.8116  0.2146  0.6577
  0.5570  0.3607  0.4048

 Free energy of the ion-electron system (eV)
  ---------------------------------------------------
  alpha Z        PSCENC =       120.87645803
  Ewald energy   TEWEN  =     38004.97643518
  -Hartree energ DENC   =    -43074.94999309
  -exchange      EXHF   =         0.00000000
  -V(xc)+E(xc)   XCENC  =       173.35195098
  PAW double counting   =      4390.20311746    -4965.94045013
  entropy T*S    EENTRO =        -0.01903890
  eigenvalues    EBANDS =      -241.63007088
  atomic energy  EATOM  =      5575.94961827
  Solvation  Ediel_sol  =         0.00000000
  ---------------------------------------------------
  free energy    TOTEN  =       -17.18197309 eV

  energy without entropy =      -17.16293419  energy(sigma->0) =      -17.17245364


--------------------------------------------------------------------------------------------------------




--------------------------------------- Iteration      1(  19)  ---------------------------------------


    POTLOK:  cpu time    0.0110: real time    0.0107
    SETDIJ:  cpu time    0.0030: real time    0.0031
    EDDIAG:  cpu time    0.2000: real time    0.1999
  RMM-DIIS:  cpu time    0.4059: real time    0.4060
    ORTHCH:  cpu time    0.0240: real time    0.0236
       DOS:  cpu time    0.0090: real time    0.0089
    CHARGE:  cpu time    0.0570: real time    0.0569
    MIXING:  cpu time    0.0000: real time    0.0009
    --------------------------------------------
      LOOP:  cpu time    0.7099: real time    0.7100

 eigenvalue-minimisations  :  2024
 total energy-change (2. order) :-0.5225015E-04  (-0.3761889E-06)
 number of electron      45.0000038 magnetization 
 augmentation part       28.7870937 magnetization 

 Broyden mixing:
  rms(total) = 0.38852E-03    rms(broyden)= 0.38830E-03
  rms(prec ) = 0.56628E-03
  weight for this iteration     100.00

 eigenvalues of (default mixing * dielectric matrix)
  average eigenvalue GAMMA=   1.6603
  6.1430  4.1379  2.4186  2.4186  1.9334  1.2240  0.9863  0.9863  0.2146  0.8020
  0.6576  0.5567  0.3607  0.4048

 Free energy of the ion-electron system (eV)
  ---------------------------------------------------
  alpha Z        PSCENC =       120.87645803
  Ewald energy   TEWEN  =     38004.97643518
  -Hartree energ DENC   =    -43075.22515598
  -exchange      EXHF   =         0.00000000
  -V(xc)+E(xc)   XCENC  =       173.35143306
  PAW double counting   =      4390.23675297    -4965.97383803
  entropy T*S    EENTRO =        -0.01903128
  eigenvalues    EBANDS =      -241.35469756
  atomic energy  EATOM  =      5575.94961827
  Solvation  Ediel_sol  =         0.00000000
  ---------------------------------------------------
  free energy    TOTEN  =       -17.18202534 eV

  energy without entropy =      -17.16299406  energy(sigma->0) =      -17.17250970


--------------------------------------------------------------------------------------------------------




--------------------------------------- Iteration      1(  20)  ---------------------------------------


    POTLOK:  cpu time    0.0110: real time    0.0119
    SETDIJ:  cpu time    0.0040: real time    0.0031
    EDDIAG:  cpu time    0.2060: real time    0.2064
  RMM-DIIS:  cpu time    0.4089: real time    0.4089
    ORTHCH:  cpu time    0.0240: real time    0.0244
       DOS:  cpu time    0.0100: real time    0.0094
    CHARGE:  cpu time    0.0570: real time    0.0572
    MIXING:  cpu time    0.0010: real time    0.0010
    --------------------------------------------
      LOOP:  cpu time    0.7219: real time    0.7224

 eigenvalue-minimisations  :  1893
 total energy-change (2. order) :-0.3197296E-04  (-0.1473929E-06)
 number of electron      45.0000038 magnetization 
 augmentation part       28.7868788 magnetization 

 Broyden mixing:
  rms(total) = 0.26360E-03    rms(broyden)= 0.26269E-03
  rms(prec ) = 0.41760E-03
  weight for this iteration     100.00

 eigenvalues of (default mixing * dielectric matrix)
  average eigenvalue GAMMA=   1.7512
  6.6508  4.9044  2.6387  2.6387  2.0601  1.3089  1.1740  0.9495  0.9495  0.2146
  0.7998  0.6576  0.5567  0.3607  0.4048

 Free energy of the ion-electron system (eV)
  ---------------------------------------------------
  alpha Z        PSCENC =       120.87645803
  Ewald energy   TEWEN  =     38004.97643518
  -Hartree energ DENC   =    -43075.36259949
  -exchange      EXHF   =         0.00000000
  -V(xc)+E(xc)   XCENC  =       173.35155840
  PAW double counting   =      4390.27753311    -4966.01710417
  entropy T*S    EENTRO =        -0.01905176
  eigenvalues    EBANDS =      -241.21490489
  atomic energy  EATOM  =      5575.94961827
  Solvation  Ediel_sol  =         0.00000000
  ---------------------------------------------------
  free energy    TOTEN  =       -17.18205731 eV

  energy without entropy =      -17.16300555  energy(sigma->0) =      -17.17253143


--------------------------------------------------------------------------------------------------------




--------------------------------------- Iteration      1(  21)  ---------------------------------------


    POTLOK:  cpu time    0.0110: real time    0.0110
    SETDIJ:  cpu time    0.0030: real time    0.0031
    EDDIAG:  cpu time    0.2000: real time    0.2004
  RMM-DIIS:  cpu time    0.3989: real time    0.3984
    ORTHCH:  cpu time    0.0230: real time    0.0236
       DOS:  cpu time    0.0090: real time    0.0089
    CHARGE:  cpu time    0.0560: real time    0.0554
    MIXING:  cpu time    0.0010: real time    0.0010
    --------------------------------------------
      LOOP:  cpu time    0.7019: real time    0.7017

 eigenvalue-minimisations  :  1830
 total energy-change (2. order) :-0.1419461E-04  (-0.5728985E-07)
 number of electron      45.0000038 magnetization 
 augmentation part       28.7869438 magnetization 

 Broyden mixing:
  rms(total) = 0.99837E-04    rms(broyden)= 0.99372E-04
  rms(prec ) = 0.14373E-03
  weight for this iteration     100.00

 eigenvalues of (default mixing * dielectric matrix)
  average eigenvalue GAMMA=   1.8681
  7.7186  5.2146  3.1410  2.5599  2.2281  1.8378  1.2427  0.9858  0.9858  0.9841
  0.2146  0.7971  0.6576  0.5567  0.4048  0.3607

 Free energy of the ion-electron system (eV)
  ---------------------------------------------------
  alpha Z        PSCENC =       120.87645803
  Ewald energy   TEWEN  =     38004.97643518
  -Hartree energ DENC   =    -43075.43664339
  -exchange      EXHF   =         0.00000000
  -V(xc)+E(xc)   XCENC  =       173.35169391
  PAW double counting   =      4390.26215177    -4965.99808308
  entropy T*S    EENTRO =        -0.01904431
  eigenvalues    EBANDS =      -241.14465789
  atomic energy  EATOM  =      5575.94961827
  Solvation  Ediel_sol  =         0.00000000
  ---------------------------------------------------
  free energy    TOTEN  =       -17.18207150 eV

  energy without entropy =      -17.16302720  energy(sigma->0) =      -17.17254935


--------------------------------------------------------------------------------------------------------




--------------------------------------- Iteration      1(  22)  ---------------------------------------


    POTLOK:  cpu time    0.0110: real time    0.0127
    SETDIJ:  cpu time    0.0030: real time    0.0032
    EDDIAG:  cpu time    0.2000: real time    0.2008
  RMM-DIIS:  cpu time    0.3909: real time    0.3903
    ORTHCH:  cpu time    0.0240: real time    0.0244
       DOS:  cpu time    0.0090: real time    0.0093
    CHARGE:  cpu time    0.0570: real time    0.0571
    MIXING:  cpu time    0.0020: real time    0.0011
    --------------------------------------------
      LOOP:  cpu time    0.6969: real time    0.6987

 eigenvalue-minimisations  :  1655
 total energy-change (2. order) :-0.6204415E-05  (-0.2207869E-07)
 number of electron      45.0000038 magnetization 
 augmentation part       28.7869237 magnetization 

 Broyden mixing:
  rms(total) = 0.66354E-04    rms(broyden)= 0.66269E-04
  rms(prec ) = 0.88903E-04
  weight for this iteration     100.00

 eigenvalues of (default mixing * dielectric matrix)
  average eigenvalue GAMMA=   1.9701
  8.1168  5.9181  3.5002  2.6266  2.6266  2.0526  1.5782  0.2146  1.1975  0.3607
  0.4048  0.9596  0.9596  0.9662  0.5567  0.6576  0.7955

 Free energy of the ion-electron system (eV)
  ---------------------------------------------------
  alpha Z        PSCENC =       120.87645803
  Ewald energy   TEWEN  =     38004.97643518
  -Hartree energ DENC   =    -43075.46581155
  -exchange      EXHF   =         0.00000000
  -V(xc)+E(xc)   XCENC  =       173.35168721
  PAW double counting   =      4390.25732208    -4965.99404839
  entropy T*S    EENTRO =        -0.01904727
  eigenvalues    EBANDS =      -241.11469128
  atomic energy  EATOM  =      5575.94961827
  Solvation  Ediel_sol  =         0.00000000
  ---------------------------------------------------
  free energy    TOTEN  =       -17.18207771 eV

  energy without entropy =      -17.16303044  energy(sigma->0) =      -17.17255407


--------------------------------------------------------------------------------------------------------




--------------------------------------- Iteration      1(  23)  ---------------------------------------


    POTLOK:  cpu time    0.0100: real time    0.0108
    SETDIJ:  cpu time    0.0040: real time    0.0031
    EDDIAG:  cpu time    0.2000: real time    0.2002
  RMM-DIIS:  cpu time    0.3679: real time    0.3679
    ORTHCH:  cpu time    0.0230: real time    0.0236
       DOS:  cpu time    0.0100: real time    0.0092
    CHARGE:  cpu time    0.0540: real time    0.0554
    MIXING:  cpu time    0.0020: real time    0.0011
    --------------------------------------------
      LOOP:  cpu time    0.6709: real time    0.6712

 eigenvalue-minimisations  :  1556
 total energy-change (2. order) :-0.2302836E-05  (-0.6189317E-08)
 number of electron      45.0000038 magnetization 
 augmentation part       28.7869737 magnetization 

 Broyden mixing:
  rms(total) = 0.24793E-04    rms(broyden)= 0.24749E-04
  rms(prec ) = 0.27042E-04
  weight for this iteration     100.00

 eigenvalues of (default mixing * dielectric matrix)
  average eigenvalue GAMMA=   2.0307
  8.6921  5.9597  3.8790  3.0277  2.3728  2.3728  1.9106  0.2146  1.3491  0.3607
  0.4048  0.5567  0.6576  1.1437  0.7949  0.9500  0.9500  0.9549

 Free energy of the ion-electron system (eV)
  ---------------------------------------------------
  alpha Z        PSCENC =       120.87645803
  Ewald energy   TEWEN  =     38004.97643518
  -Hartree energ DENC   =    -43075.47592002
  -exchange      EXHF   =         0.00000000
  -V(xc)+E(xc)   XCENC  =       173.35158550
  PAW double counting   =      4390.25345207    -4965.99057111
  entropy T*S    EENTRO =        -0.01904542
  eigenvalues    EBANDS =      -241.10409251
  atomic energy  EATOM  =      5575.94961827
  Solvation  Ediel_sol  =         0.00000000
  ---------------------------------------------------
  free energy    TOTEN  =       -17.18208001 eV

  energy without entropy =      -17.16303459  energy(sigma->0) =      -17.17255730


--------------------------------------------------------------------------------------------------------




--------------------------------------- Iteration      1(  24)  ---------------------------------------


    POTLOK:  cpu time    0.0110: real time    0.0125
    SETDIJ:  cpu time    0.0040: real time    0.0032
    EDDIAG:  cpu time    0.2000: real time    0.2010
  RMM-DIIS:  cpu time    0.3030: real time    0.3022
    ORTHCH:  cpu time    0.0230: real time    0.0235
       DOS:  cpu time    0.0090: real time    0.0090
    --------------------------------------------
      LOOP:  cpu time    0.5499: real time    0.5514

 eigenvalue-minimisations  :   523
 total energy-change (2. order) :-0.3252781E-06  (-0.4433546E-09)
 number of electron      45.0000038 magnetization 
 augmentation part       28.7869737 magnetization 

 Free energy of the ion-electron system (eV)
  ---------------------------------------------------
[...]
      3      -6.3682      2.00000
      4      -6.2280      2.00000
      5      -6.1545      2.00000
      6      -6.0451      2.00000
      7      -5.9466      2.00000
      8      -5.8638      2.00000
      9      -5.6504      2.00000
     10      -5.5725      2.00000
     11      -5.4280      2.00000
     12      -5.0304      2.00000
     13      -4.9784      2.00000
     14      -4.7985      2.00000
     15      -4.6517      2.00000
     16      -4.4932      2.00000
     17      -4.4420      2.00000
     18      -4.1520      2.00000
     19      -4.0681      2.00000
     20      -3.9762      2.00000
     21      -1.9684      0.00000
     22      -0.3470      0.00000
     23       0.8049      0.00000
     24       1.8361      0.00000
     25       2.3673      0.00000
     26       2.3986      0.00000
     27       3.2732      0.00000
     28       4.0708      0.00000

 k-point    45 :      -0.2000    0.4000    0.0000
  band No.  band energies     occupation 
      1      -7.6657      2.00000
      2      -6.6431      2.00000
      3      -6.5734      2.00000
      4      -6.3118      2.00000
      5      -6.2895      2.00000
      6      -6.0443      2.00000
      7      -5.9169      2.00000
      8      -5.8130      2.00000
      9      -5.5595      2.00000
     10      -5.4430      2.00000
     11      -5.3203      2.00000
     12      -5.0851      2.00000
     13      -4.8796      2.00000
     14      -4.6859      2.00000
     15      -4.5570      2.00000
     16      -4.4343      2.00000
     17      -4.2748      2.00000
     18      -4.1214      2.00000
     19      -4.0524      2.00000
     20      -3.9523      2.00000
     21      -2.3627      1.47415
     22      -0.6661      0.00000
     23      -0.0750      0.00000
     24       0.6864      0.00000
     25       0.8632      0.00000
     26       2.7134      0.00000
     27       4.0646      0.00000
     28       4.4447      0.00000

 k-point    46 :      -0.1000    0.4000    0.0000
  band No.  band energies     occupation 
      1      -7.9260      2.00000
      2      -6.9610      2.00000
      3      -6.8827      2.00000
      4      -6.5351      2.00000
      5      -6.4483      2.00000
      6      -6.2181      2.00000
      7      -5.9140      2.00000
      8      -5.5622      2.00000
      9      -5.4047      2.00000
     10      -5.3276      2.00000
     11      -5.2176      2.00000
     12      -4.9304      2.00000
     13      -4.8013      2.00000
     14      -4.5128      2.00000
     15      -4.3753      2.00000
     16      -4.2394      2.00000
     17      -4.1361      2.00000
     18      -4.0872      2.00000
     19      -4.0189      2.00000
     20      -3.8582      2.00000
     21      -3.3376      2.00000
     22      -2.3310      1.14806
     23      -1.3465      0.00000
     24       0.0992      0.00000
     25       0.8088      0.00000
     26       2.4439      0.00000
     27       3.5479      0.00000
     28       4.5565      0.00000

 k-point    47 :       0.0000    0.5000    0.0000
  band No.  band energies     occupation 
      1      -7.9908      2.00000
      2      -7.0291      2.00000
      3      -6.9769      2.00000
      4      -6.6140      2.00000
      5      -6.5378      2.00000
      6      -6.3135      2.00000
      7      -5.9081      2.00000
      8      -5.4057      2.00000
      9      -5.3215      2.00000
     10      -5.2341      2.00000
     11      -5.1732      2.00000
     12      -4.9353      2.00000
     13      -4.4442      2.00000
     14      -4.4218      2.00000
     15      -4.2745      2.00000
     16      -4.2358      2.00000
     17      -4.0415      2.00000
     18      -3.9517      2.00000
     19      -3.8913      2.00000
     20      -3.6853      2.00000
     21      -3.5437      2.00000
     22      -2.2279      0.20327
     23      -1.3542      0.00000
     24      -0.8049      0.00000
     25       0.3489      0.00000
     26       2.1169      0.00000
     27       3.3052      0.00000
     28       4.0840      0.00000

 k-point    48 :       0.1000    0.5000    0.0000
  band No.  band energies     occupation 
      1      -7.9396      2.00000
      2      -6.9641      2.00000
      3      -6.8845      2.00000
      4      -6.5365      2.00000
      5      -6.4501      2.00000
      6      -6.2145      2.00000
      7      -5.9110      2.00000
      8      -5.5326      2.00000
      9      -5.4134      2.00000
     10      -5.3238      2.00000
     11      -5.2075      2.00000
     12      -4.9328      2.00000
     13      -4.7959      2.00000
     14      -4.5116      2.00000
     15      -4.3771      2.00000
     16      -4.2415      2.00000
     17      -4.1315      2.00000
     18      -4.0964      2.00000
     19      -4.0181      2.00000
     20      -3.8590      2.00000
     21      -3.3622      2.00000
     22      -2.3320      1.15894
     23      -1.3384      0.00000
     24       0.1071      0.00000
     25       0.8194      0.00000
     26       2.4448      0.00000
     27       3.5429      0.00000
     28       4.5615      0.00000

 k-point    49 :       0.2000    0.5000    0.0000
  band No.  band energies     occupation 
      1      -7.8394      2.00000
      2      -6.8663      2.00000
      3      -6.6642      2.00000
      4      -6.4084      2.00000
      5      -6.2450      2.00000
      6      -6.0776      2.00000
      7      -5.9046      2.00000
      8      -5.7678      2.00000
      9      -5.5465      2.00000
     10      -5.4846      2.00000
     11      -5.3784      2.00000
     12      -5.0521      2.00000
     13      -4.9496      2.00000
     14      -4.8124      2.00000
     15      -4.6258      2.00000
     16      -4.5335      2.00000
     17      -4.3691      2.00000
     18      -4.1910      2.00000
     19      -4.0379      2.00000
     20      -3.8813      2.00000
     21      -3.2043      2.00000
     22      -2.3410      1.25656
     23      -1.2174      0.00000
     24       0.7223      0.00000
     25       2.3947      0.00000
     26       3.5329      0.00000
     27       4.3980      0.00000
     28       5.0028      0.00000

 k-point    50 :       0.3000    0.5000    0.0000
  band No.  band energies     occupation 
      1      -7.8300      2.00000
      2      -6.8719      2.00000
      3      -6.6675      2.00000
      4      -6.4138      2.00000
      5      -6.2415      2.00000
      6      -6.0892      2.00000
      7      -5.9060      2.00000
      8      -5.7719      2.00000
      9      -5.5444      2.00000
     10      -5.4905      2.00000
     11      -5.3765      2.00000
     12      -5.0517      2.00000
     13      -4.9473      2.00000
     14      -4.8078      2.00000
     15      -4.6335      2.00000
     16      -4.5280      2.00000
     17      -4.3698      2.00000
     18      -4.1901      2.00000
     19      -4.0379      2.00000
     20      -3.8813      2.00000
     21      -3.2108      2.00000
     22      -2.3401      1.24745
     23      -1.2112      0.00000
     24       0.7537      0.00000
     25       2.4844      0.00000
     26       3.5732      0.00000
     27       4.2916      0.00000
     28       4.9315      0.00000

 k-point    51 :       0.4000    0.5000    0.0000
  band No.  band energies     occupation 
      1      -7.9194      2.00000
      2      -6.9625      2.00000
      3      -6.8949      2.00000
      4      -6.5581      2.00000
      5      -6.4505      2.00000
      6      -6.2294      2.00000
      7      -5.9190      2.00000
      8      -5.5316      2.00000
      9      -5.4171      2.00000
     10      -5.3209      2.00000
     11      -5.2083      2.00000
     12      -4.9441      2.00000
     13      -4.7936      2.00000
     14      -4.5097      2.00000
     15      -4.3782      2.00000
     16      -4.2415      2.00000
     17      -4.1323      2.00000
     18      -4.0940      2.00000
     19      -4.0190      2.00000
     20      -3.8590      2.00000
     21      -3.3861      2.00000
     22      -2.3290      1.12542
     23      -1.3307      0.00000
     24       0.1204      0.00000
     25       1.0346      0.00000
     26       2.4845      0.00000
     27       3.5105      0.00000
     28       4.3641      0.00000

 k-point    52 :       0.5000    0.5000    0.0000
  band No.  band energies     occupation 
      1      -7.9684      2.00000
      2      -7.0211      2.00000
      3      -6.9904      2.00000
      4      -6.6379      2.00000
      5      -6.5407      2.00000
      6      -6.3316      2.00000
      7      -5.9192      2.00000
      8      -5.4053      2.00000
      9      -5.3006      2.00000
     10      -5.2641      2.00000
     11      -5.1608      2.00000
     12      -4.9314      2.00000
     13      -4.4610      2.00000
     14      -4.4304      2.00000
     15      -4.2726      2.00000
     16      -4.2308      2.00000
     17      -4.0413      2.00000
     18      -3.9524      2.00000
     19      -3.8917      2.00000
     20      -3.6859      2.00000
     21      -3.5818      2.00000
     22      -2.2216      0.17362
     23      -1.3550      0.00000
     24      -0.8052      0.00000
     25       0.6310      0.00000
     26       2.1527      0.00000
     27       3.3247      0.00000
     28       3.8579      0.00000


--------------------------------------------------------------------------------------------------------


 soft charge-density along one line, spin component           1
         0         1         2         3         4         5         6         7         8         9
 total charge-density along one line
 
 pseudopotential strength for first ion, spin component:           1
-10.803  -0.000   0.000  -0.004   0.000   1.723   0.000  -0.000
 -0.000 -10.780   0.000   0.000  -0.004   0.000   1.712  -0.000
  0.000   0.000 -10.781  -0.000  -0.000  -0.000  -0.000   1.712
 -0.004   0.000  -0.000 -10.780  -0.000   0.002   0.000   0.000
  0.000  -0.004  -0.000  -0.000 -10.803  -0.000   0.002   0.000
  1.723   0.000  -0.000   0.002  -0.000   0.784  -0.000   0.000
  0.000   1.712  -0.000   0.000   0.002  -0.000   0.789   0.000
 -0.000  -0.000   1.712   0.000   0.000   0.000   0.000   0.789
  0.002   0.000   0.000   1.712   0.000  -0.001  -0.000  -0.000
 -0.000   0.002   0.000   0.000   1.723   0.000  -0.001  -0.000
  0.000  -0.000  -0.005   0.000  -0.000  -0.000   0.000   0.002
 -0.000   0.000   0.000  -0.000   0.000   0.000  -0.000  -0.000
 -0.000  -0.011  -0.000   0.000   0.000   0.000   0.006   0.000
  0.000   0.000  -0.011  -0.000  -0.000  -0.000  -0.000   0.006
  0.000   0.000   0.000  -0.011  -0.000  -0.000  -0.000  -0.000
 -0.000   0.006   0.000   0.000  -0.000   0.000  -0.003   0.000
  0.000   0.000   0.006  -0.000   0.000   0.000  -0.000  -0.003
 -0.000   0.000   0.000   0.006  -0.000   0.000   0.000  -0.000
 total augmentation occupancy for first ion, spin component:           1
  1.927  -0.000   0.000  -0.002   0.000  -0.003   0.000   0.000   0.010   0.000   0.000   0.000  -0.000  -0.000   0.005   0.000
 -0.000   1.931   0.000   0.000  -0.002   0.000  -0.036  -0.000   0.000   0.010  -0.000  -0.000  -0.003  -0.000   0.000  -0.005
  0.000   0.000   1.933  -0.000   0.000   0.000  -0.000  -0.026  -0.000   0.000   0.014   0.040  -0.000   0.036   0.000   0.000
 -0.002   0.000  -0.000   1.931  -0.000   0.010   0.000  -0.000  -0.036   0.000   0.000   0.000   0.000   0.000  -0.003  -0.000
  0.000  -0.002   0.000  -0.000   1.927   0.000   0.010   0.000   0.000  -0.003   0.000   0.000   0.005   0.000  -0.000  -0.001
 -0.003   0.000   0.000   0.010   0.000   0.059  -0.000   0.000   0.001  -0.000  -0.000  -0.000   0.000   0.000   0.005  -0.000
  0.000  -0.036  -0.000   0.000   0.010  -0.000   0.038   0.000  -0.000   0.001   0.000   0.000   0.030   0.000  -0.000  -0.002
  0.000  -0.000  -0.026  -0.000   0.000   0.000   0.000   0.054   0.000  -0.000  -0.076   0.014   0.000   0.041  -0.000  -0.000
  0.010   0.000  -0.000  -0.036   0.000   0.001  -0.000   0.000   0.038  -0.000  -0.000  -0.000  -0.000   0.000   0.030   0.000
  0.000   0.010   0.000   0.000  -0.003  -0.000   0.001  -0.000  -0.000   0.059  -0.000   0.000   0.005  -0.000   0.000  -0.000
  0.000  -0.000   0.014   0.000   0.000  -0.000   0.000  -0.076  -0.000  -0.000   1.239  -0.278   0.000   0.069  -0.000  -0.000
  0.000  -0.000   0.040   0.000   0.000  -0.000   0.000   0.014  -0.000   0.000  -0.278   0.108   0.000  -0.044  -0.000   0.000
 -0.000  -0.003  -0.000   0.000   0.005   0.000   0.030   0.000  -0.000   0.005   0.000   0.000   0.169   0.000   0.000  -0.010
 -0.000  -0.000   0.036   0.000   0.000   0.000   0.000   0.041   0.000  -0.000   0.069  -0.044   0.000   0.090  -0.000  -0.000
  0.005   0.000   0.000  -0.003  -0.000   0.005  -0.000  -0.000   0.030   0.000  -0.000  -0.000   0.000  -0.000   0.169   0.000
  0.000  -0.005   0.000  -0.000  -0.001  -0.000  -0.002  -0.000   0.000  -0.000  -0.000   0.000  -0.010  -0.000   0.000   0.001
  0.000  -0.000  -0.008   0.000   0.000   0.000   0.000  -0.002  -0.000   0.000  -0.013   0.006  -0.000  -0.006   0.000   0.000
 -0.001  -0.000  -0.000  -0.005   0.000  -0.000   0.000   0.000  -0.002  -0.000   0.000  -0.000   0.000   0.000  -0.010  -0.000


------------------------ aborting loop because EDIFF is reached ----------------------------------------


 


 total charge     
 
# of ion       s       p       d       tot
------------------------------------------
    1        0.454   0.283   9.218   9.956
    2        0.441   0.364   9.219  10.024
    3        0.454   0.369   9.211  10.033
    4        0.420   0.447   9.200  10.067
    5        0.497   0.014   0.000   0.511
--------------------------------------------------
tot          2.266   1.477  36.848  40.590
 
    CHARGE:  cpu time    0.0560: real time    0.0568
    FORLOC:  cpu time    0.0020: real time    0.0013
    FORNL :  cpu time    0.2930: real time    0.2935
    STRESS:  cpu time    0.8859: real time    0.8868
    FORCOR:  cpu time    0.0110: real time    0.0110
    FORHAR:  cpu time    0.0040: real time    0.0029
    MIXING:  cpu time    0.0000: real time    0.0011
    OFIELD:  cpu time    0.0000: real time    0.0000

  FORCE on cell =-STRESS in cart. coord.  units (eV):
  Direction    XX          YY          ZZ          XY          YZ          ZX
  --------------------------------------------------------------------------------------
  Alpha Z   120.87646   120.87646   120.87646
  Ewald   40935.85245 40936.10275-43866.98247     4.63972     0.43561     3.12060
  Hartree 42248.33074 42248.47758-41421.31848     1.75735     0.11833     0.95548
  E(xc)    -253.01424  -253.00737  -253.53060     0.01181     0.00109     0.00871
  Local  -83451.36357-83451.78264 85018.96840    -5.93352    -0.47768    -3.62511
  n-local  -156.02880  -156.04686  -156.75571     0.05642     0.01075     0.06430
  augment   225.67756   225.70969   226.55603    -0.17259    -0.02744    -0.16146
  Kinetic   324.41068   324.39366   326.57895    -0.29307    -0.02260    -0.16095
  Fock        0.00000     0.00000     0.00000     0.00000     0.00000     0.00000
  -------------------------------------------------------------------------------------
  Total      -5.25873    -5.27674    -5.60742     0.06611     0.03806     0.20159
  in kB     -48.45942   -48.62540   -51.67263     0.60920     0.35071     1.85766
  external pressure =      -49.59 kB  Pullay stress =        0.00 kB


 VOLUME and BASIS-vectors are now :
 -----------------------------------------------------------------------------
  energy-cutoff  :      250.00
  volume of cell :      173.87
      direct lattice vectors                 reciprocal lattice vectors
     2.573868684  0.000000000  0.000000000     0.388520209 -0.224312248  0.000000000
     1.286934342  2.229035666  0.000000000     0.000000000  0.448624495  0.000000000
     0.000000000  0.000000000 30.304664940     0.000000000  0.000000000  0.032998220

  length of vectors
     2.573868684  2.573868684 30.304664940     0.448624495  0.448624495  0.032998220


 FORCES acting on ions
    electron-ion (+dipol)            ewald-force                    non-local-force                 convergence-correction
 -----------------------------------------------------------------------------------------------
   -.908E-02 0.841E-03 0.421E+04   0.297E-06 0.236E-07 -.421E+04   0.103E-01 -.996E-03 -.154E+01   0.372E-06 0.856E-07 -.186E-03
   -.817E-04 0.446E-04 0.149E+04   0.623E-04 -.782E-10 -.149E+04   -.103E-02 -.114E-03 -.726E+00   0.482E-06 0.189E-06 -.249E-03
   0.475E-01 -.429E-02 -.124E+04   -.115E-01 0.142E-02 0.124E+04   -.350E-01 0.255E-02 0.135E+00   0.364E-05 0.489E-06 0.122E-02
   0.331E+01 0.447E+00 -.398E+04   -.309E+01 -.440E+00 0.398E+04   -.434E+00 -.431E-01 0.232E+00   -.760E-05 0.239E-06 0.551E-03
   -.276E+01 -.384E+00 -.478E+03   0.310E+01 0.439E+00 0.479E+03   -.131E+00 -.182E-01 -.137E+01   0.257E-06 0.632E-07 0.232E-04
 -----------------------------------------------------------------------------------------------
   0.590E+00 0.596E-01 0.327E+01   -.150E-12 0.336E-13 -.125E-11   -.591E+00 -.599E-01 -.327E+01   -.285E-05 0.107E-05 0.136E-02
 
 
 POSITION                                       TOTAL-FORCE (eV/Angst)
 -----------------------------------------------------------------------------------
      0.00000      0.00000     12.00000         0.001320     -0.000093      0.152697
      1.28693      0.74301     14.10155        -0.000994     -0.000007     -0.026628
      2.57387      1.48602     16.20311         0.001014     -0.000251     -0.288268
      0.00000      0.00000     18.30466        -0.206228     -0.036569      0.761119
      1.18693      0.74301     19.30466         0.204888      0.036920     -0.598920
 -----------------------------------------------------------------------------------
    total drift:                               -0.000258     -0.000310     -0.002628


--------------------------------------------------------------------------------------------------------



  FREE ENERGIE OF THE ION-ELECTRON SYSTEM (eV)
  ---------------------------------------------------
  free  energy   TOTEN  =       -17.18208034 eV

  energy  without entropy=      -17.16303447  energy(sigma->0) =      -17.17255740
 


--------------------------------------------------------------------------------------------------------


    POTLOK:  cpu time    0.0140: real time    0.0136


--------------------------------------------------------------------------------------------------------


     LOOP+:  cpu time   23.0715: real time   23.2825
    4ORBIT:  cpu time    0.0000: real time    0.0000
 


 total charge     
 
# of ion       s       p       d       tot
------------------------------------------
    1        0.454   0.283   9.218   9.956
    2        0.441   0.364   9.219  10.024
    3        0.454   0.369   9.211  10.033
    4        0.420   0.447   9.200  10.067
    5        0.497   0.014   0.000   0.511
--------------------------------------------------
tot          2.266   1.477  36.848  40.590
 

 total amount of memory used by VASP MPI-rank0    43138. kBytes
=======================================================================

   base      :      30000. kBytes
   nonlr-proj:        675. kBytes
   fftplans  :        995. kBytes
   grid      :       1592. kBytes
   one-center:         46. kBytes
   wavefun   :       9830. kBytes
 
  
  
 General timing and accounting informations for this job:
 ========================================================
  
                  Total CPU time used (sec):       24.645
                            User time (sec):       24.181
                          System time (sec):        0.464
                         Elapsed time (sec):       25.390
  
                   Maximum memory used (kb):       43716.
                   Average memory used (kb):           0.
  
                          Minor page faults:        22811
                          Major page faults:           58
                 Voluntary context switches:         3347
