PROCAR lm decomposed
# of k-points:   52         # of bands:   28         # of ions:    5

 k-point     1 :    0.00000000 0.00000000 0.00000000     weight = 0.01000000

band     1 # energy  -11.60861245 # occ.  2.00000000
 
ion      s     py     pz     px    dxy    dyz    dz2    dxz  x2-y2    tot
    1  0.007  0.000  0.001  0.000  0.000  0.000  0.000  0.000  0.000  0.008
    2  0.043  0.000  0.002  0.000  0.000  0.000  0.000  0.000  0.000  0.045
    3  0.135  0.000  0.003  0.000  0.000  0.000  0.000  0.000  0.000  0.137
    4  0.304  0.000  0.000  0.000  0.000  0.000  0.009  0.000  0.000  0.313
    5  0.088  0.000  0.001  0.000  0.000  0.000  0.000  0.000  0.000  0.089
tot    0.576  0.000  0.006  0.000  0.000  0.000  0.009  0.000  0.000  0.592
 
band     2 # energy  -10.59123357 # occ.  2.00000000
 
ion      s     py     pz     px    dxy    dyz    dz2    dxz  x2-y2    tot
    1  0.117  0.000  0.010  0.000  0.000  0.000  0.000  0.000  0.000  0.127
    2  0.263  0.000  0.000  0.000  0.000  0.000  0.002  0.000  0.000  0.266
    3  0.050  0.000  0.018  0.000  0.000  0.000  0.001  0.000  0.000  0.069
    4  0.067  0.000  0.008  0.000  0.000  0.000  0.011  0.000  0.000  0.087
    5  0.040  0.000  0.000  0.000  0.000  0.000  0.000  0.000  0.000  0.040
tot    0.537  0.000  0.037  0.000  0.000  0.000  0.015  0.000  0.000  0.588
 
band     3 # energy   -8.98447511 # occ.  2.00000000
 
ion      s     py     pz     px    dxy    dyz    dz2    dxz  x2-y2    tot
    1  0.190  0.000  0.002  0.000  0.000  0.000  0.020  0.000  0.000  0.212
    2  0.004  0.000  0.045  0.000  0.000  0.000  0.001  0.000  0.000  0.050
    3  0.203  0.000  0.000  0.000  0.000  0.000  0.040  0.000  0.000  0.243
    4  0.009  0.000  0.031  0.000  0.000  0.000  0.025  0.000  0.000  0.066
    5  0.032  0.000  0.000  0.000  0.000  0.000  0.000  0.000  0.000  0.032
tot    0.438  0.000  0.079  0.000  0.000  0.000  0.086  0.000  0.000  0.603
 
band     4 # energy   -7.52419424 # occ.  2.00000000
 
ion      s     py     pz     px    dxy    dyz    dz2    dxz  x2-y2    tot
    1  0.109  0.000  0.005  0.000  0.000  0.000  0.131  0.000  0.000  0.245
    2  0.101  0.000  0.003  0.000  0.000  0.000  0.226  0.000  0.000  0.330
    3  0.032  0.000  0.014  0.000  0.000  0.000  0.091  0.000  0.000  0.137
    4  0.000  0.000  0.011  0.000  0.000  0.000  0.014  0.000  0.000  0.026
    5  0.006  0.000  0.000  0.000  0.000  0.000  0.000  0.000  0.000  0.006
tot    0.247  0.000  0.034  0.000  0.000  0.000  0.462  0.000  0.000  0.743
 
band     5 # energy   -6.08915816 # occ.  2.00000000
 
ion      s     py     pz     px    dxy    dyz    dz2    dxz  x2-y2    tot
    1  0.000  0.000  0.000  0.000  0.000  0.000  0.004  0.000  0.000  0.004
    2  0.001  0.000  0.001  0.000  0.000  0.000  0.006  0.000  0.000  0.007
    3  0.002  0.000  0.002  0.000  0.000  0.000  0.083  0.000  0.000  0.087
    4  0.005  0.000  0.042  0.000  0.010  0.000  0.583  0.002  0.000  0.643
    5  0.049  0.000  0.001  0.000  0.000  0.000  0.000  0.000  0.000  0.050
tot    0.056  0.000  0.046  0.000  0.010  0.000  0.676  0.002  0.000  0.791
 
band     6 # energy   -5.57524551 # occ.  2.00000000
 
ion      s     py     pz     px    dxy    dyz    dz2    dxz  x2-y2    tot
    1  0.000  0.000  0.000  0.000  0.000  0.000  0.018  0.000  0.000  0.019
    2  0.001  0.000  0.000  0.000  0.004  0.000  0.003  0.000  0.000  0.008
    3  0.000  0.000  0.006  0.000  0.003  0.000  0.187  0.020  0.000  0.216
    4  0.003  0.000  0.006  0.000  0.570  0.000  0.119  0.006  0.003  0.706
    5  0.002  0.000  0.000  0.001  0.000  0.000  0.000  0.000  0.000  0.002
tot    0.005  0.000  0.012  0.001  0.576  0.000  0.327  0.027  0.003  0.952
 
band     7 # energy   -5.55707596 # occ.  2.00000000
 
ion      s     py     pz     px    dxy    dyz    dz2    dxz  x2-y2    tot
    1  0.000  0.000  0.000  0.000  0.000  0.000  0.000  0.000  0.000  0.000
    2  0.000  0.000  0.000  0.000  0.000  0.000  0.000  0.000  0.007  0.008
    3  0.000  0.000  0.000  0.000  0.000  0.033  0.001  0.000  0.005  0.040
    4  0.000  0.000  0.000  0.000  0.001  0.008  0.001  0.001  0.907  0.918
    5  0.000  0.001  0.000  0.000  0.000  0.000  0.000  0.000  0.000  0.001
tot    0.000  0.001  0.000  0.000  0.001  0.042  0.002  0.001  0.919  0.967
 
band     8 # energy   -5.52347199 # occ.  2.00000000
 
ion      s     py     pz     px    dxy    dyz    dz2    dxz  x2-y2    tot
    1  0.000  0.000  0.001  0.000  0.000  0.000  0.040  0.000  0.000  0.041
    2  0.001  0.000  0.003  0.000  0.003  0.000  0.003  0.000  0.000  0.010
    3  0.002  0.000  0.004  0.000  0.002  0.000  0.418  0.013  0.000  0.440
    4  0.001  0.000  0.015  0.000  0.322  0.000  0.101  0.002  0.000  0.442
    5  0.004  0.000  0.000  0.000  0.000  0.000  0.000  0.000  0.000  0.004
tot    0.008  0.000  0.023  0.001  0.327  0.000  0.562  0.015  0.000  0.937
 
band     9 # energy   -5.31485427 # occ.  2.00000000
 
ion      s     py     pz     px    dxy    dyz    dz2    dxz  x2-y2    tot
    1  0.001  0.000  0.005  0.000  0.000  0.000  0.248  0.000  0.000  0.254
    2  0.004  0.000  0.000  0.000  0.002  0.000  0.574  0.001  0.000  0.580
    3  0.001  0.000  0.013  0.000  0.016  0.000  0.051  0.000  0.000  0.082
    4  0.002  0.000  0.006  0.000  0.003  0.000  0.000  0.003  0.000  0.014
    5  0.003  0.000  0.000  0.000  0.000  0.000  0.000  0.000  0.000  0.003
tot    0.010  0.000  0.025  0.000  0.021  0.000  0.873  0.004  0.000  0.933
 
band    10 # energy   -5.29050859 # occ.  2.00000000
 
ion      s     py     pz     px    dxy    dyz    dz2    dxz  x2-y2    tot
    1  0.000  0.000  0.000  0.000  0.005  0.000  0.005  0.000  0.008  0.018
    2  0.000  0.000  0.000  0.000  0.010  0.028  0.007  0.019  0.015  0.079
    3  0.000  0.000  0.000  0.000  0.301  0.007  0.000  0.005  0.439  0.753
    4  0.000  0.000  0.000  0.000  0.000  0.068  0.000  0.047  0.000  0.115
    5  0.000  0.000  0.000  0.000  0.000  0.000  0.000  0.000  0.000  0.000
tot    0.000  0.000  0.000  0.000  0.317  0.103  0.012  0.071  0.462  0.966
 
band    11 # energy   -5.28564389 # occ.  2.00000000
 
ion      s     py     pz     px    dxy    dyz    dz2    dxz  x2-y2    tot
    1  0.000  0.000  0.000  0.000  0.008  0.000  0.004  0.000  0.006  0.018
    2  0.000  0.000  0.000  0.000  0.014  0.021  0.005  0.029  0.010  0.079
    3  0.000  0.000  0.000  0.000  0.435  0.006  0.000  0.008  0.313  0.762
    4  0.000  0.000  0.000  0.000  0.001  0.043  0.000  0.061  0.001  0.106
    5  0.000  0.000  0.000  0.000  0.000  0.000  0.000  0.000  0.000  0.000
tot    0.000  0.000  0.000  0.000  0.459  0.070  0.009  0.097  0.330  0.966
 
band    12 # energy   -5.22327936 # occ.  2.00000000
 
ion      s     py     pz     px    dxy    dyz    dz2    dxz  x2-y2    tot
    1  0.000  0.000  0.000  0.000  0.002  0.018  0.000  0.010  0.004  0.035
    2  0.000  0.000  0.000  0.000  0.303  0.008  0.000  0.005  0.527  0.843
    3  0.000  0.000  0.000  0.000  0.003  0.035  0.000  0.020  0.004  0.062
    4  0.000  0.000  0.000  0.000  0.006  0.007  0.000  0.004  0.011  0.028
    5  0.000  0.000  0.000  0.000  0.000  0.000  0.000  0.000  0.000  0.000
tot    0.000  0.000  0.000  0.000  0.313  0.068  0.000  0.039  0.546  0.967
 
band    13 # energy   -5.22218131 # occ.  2.00000000
 
ion      s     py     pz     px    dxy    dyz    dz2    dxz  x2-y2    tot
    1  0.000  0.000  0.000  0.000  0.004  0.010  0.000  0.018  0.002  0.035
    2  0.000  0.000  0.000  0.000  0.527  0.005  0.000  0.008  0.303  0.842
    3  0.000  0.000  0.000  0.000  0.004  0.019  0.000  0.034  0.002  0.060
    4  0.000  0.000  0.000  0.000  0.013  0.004  0.000  0.007  0.007  0.030
    5  0.000  0.000  0.000  0.000  0.000  0.000  0.000  0.000  0.000  0.000
tot    0.000  0.000  0.000  0.000  0.548  0.038  0.000  0.066  0.315  0.967
 
band    14 # energy   -4.96406719 # occ.  2.00000000
 
ion      s     py     pz     px    dxy    dyz    dz2    dxz  x2-y2    tot
    1  0.000  0.000  0.000  0.000  0.212  0.005  0.000  0.002  0.620  0.840
    2  0.000  0.000  0.000  0.000  0.000  0.065  0.000  0.022  0.001  0.088
    3  0.000  0.000  0.000  0.000  0.006  0.003  0.000  0.001  0.019  0.028
    4  0.000  0.000  0.000  0.000  0.000  0.008  0.000  0.003  0.000  0.012
    5  0.000  0.000  0.000  0.000  0.000  0.000  0.000  0.000  0.000  0.000
tot    0.000  0.000  0.000  0.000  0.218  0.081  0.000  0.029  0.640  0.968
 
band    15 # energy   -4.96377172 # occ.  2.00000000
 
ion      s     py     pz     px    dxy    dyz    dz2    dxz  x2-y2    tot
    1  0.000  0.000  0.000  0.000  0.620  0.002  0.000  0.005  0.213  0.840
    2  0.000  0.000  0.000  0.000  0.001  0.021  0.000  0.064  0.000  0.087
    3  0.000  0.000  0.000  0.000  0.020  0.001  0.000  0.003  0.008  0.031
    4  0.000  0.000  0.000  0.000  0.000  0.002  0.000  0.007  0.000  0.010
    5  0.000  0.000  0.000  0.000  0.000  0.000  0.000  0.000  0.000  0.000
tot    0.000  0.000  0.000  0.000  0.641  0.026  0.001  0.079  0.221  0.968
 
band    16 # energy   -4.87255613 # occ.  2.00000000
 
ion      s     py     pz     px    dxy    dyz    dz2    dxz  x2-y2    tot
    1  0.027  0.000  0.000  0.000  0.001  0.000  0.403  0.000  0.000  0.431
    2  0.013  0.000  0.045  0.000  0.000  0.000  0.051  0.000  0.000  0.109
    3  0.000  0.000  0.078  0.000  0.004  0.000  0.002  0.000  0.000  0.084
    4  0.014  0.000  0.042  0.000  0.005  0.000  0.025  0.009  0.000  0.095
    5  0.016  0.000  0.000  0.000  0.000  0.000  0.000  0.000  0.000  0.016
tot    0.069  0.000  0.166  0.000  0.010  0.001  0.480  0.009  0.000  0.735
 
band    17 # energy   -4.74777328 # occ.  2.00000000
 
ion      s     py     pz     px    dxy    dyz    dz2    dxz  x2-y2    tot
    1  0.000  0.000  0.000  0.000  0.001  0.002  0.003  0.001  0.001  0.009
    2  0.000  0.000  0.000  0.000  0.007  0.003  0.001  0.002  0.009  0.023
    3  0.000  0.000  0.001  0.000  0.059  0.039  0.000  0.029  0.080  0.208
    4  0.000  0.000  0.001  0.000  0.011  0.409  0.000  0.304  0.015  0.739
    5  0.000  0.000  0.000  0.000  0.000  0.000  0.000  0.000  0.000  0.001
tot    0.001  0.000  0.002  0.000  0.078  0.453  0.004  0.336  0.105  0.981
 
band    18 # energy   -4.72398064 # occ.  2.00000000
 
ion      s     py     pz     px    dxy    dyz    dz2    dxz  x2-y2    tot
    1  0.000  0.000  0.000  0.000  0.000  0.002  0.001  0.002  0.000  0.006
    2  0.000  0.000  0.000  0.000  0.011  0.002  0.000  0.002  0.008  0.024
    3  0.000  0.000  0.000  0.000  0.073  0.041  0.000  0.053  0.056  0.224
    4  0.000  0.000  0.000  0.000  0.010  0.308  0.000  0.402  0.007  0.728
    5  0.000  0.000  0.000  0.000  0.000  0.000  0.000  0.000  0.000  0.000
tot    0.000  0.000  0.001  0.000  0.094  0.353  0.002  0.460  0.072  0.982
 
band    19 # energy   -4.48078040 # occ.  2.00000000
 
ion      s     py     pz     px    dxy    dyz    dz2    dxz  x2-y2    tot
    1  0.000  0.000  0.000  0.000  0.043  0.021  0.000  0.018  0.051  0.133
    2  0.000  0.000  0.000  0.000  0.030  0.228  0.000  0.191  0.035  0.485
    3  0.000  0.000  0.000  0.000  0.012  0.158  0.000  0.134  0.014  0.318
    4  0.000  0.000  0.000  0.000  0.003  0.022  0.000  0.019  0.004  0.049
    5  0.000  0.000  0.000  0.000  0.000  0.000  0.000  0.000  0.000  0.000
tot    0.000  0.000  0.000  0.000  0.088  0.430  0.000  0.361  0.104  0.984
 
band    20 # energy   -4.47786206 # occ.  2.00000000
 
ion      s     py     pz     px    dxy    dyz    dz2    dxz  x2-y2    tot
    1  0.000  0.000  0.000  0.000  0.051  0.020  0.000  0.024  0.043  0.138
    2  0.000  0.000  0.000  0.000  0.034  0.198  0.000  0.235  0.028  0.495
    3  0.000  0.000  0.000  0.000  0.013  0.120  0.000  0.144  0.011  0.288
    4  0.000  0.000  0.000  0.000  0.004  0.025  0.000  0.030  0.003  0.062
    5  0.000  0.000  0.000  0.000  0.000  0.000  0.000  0.000  0.000  0.000
tot    0.000  0.000  0.000  0.000  0.102  0.364  0.000  0.432  0.086  0.984
 
band    21 # energy   -4.26285854 # occ.  2.00000000
 
ion      s     py     pz     px    dxy    dyz    dz2    dxz  x2-y2    tot
    1  0.000  0.000  0.000  0.000  0.007  0.160  0.000  0.157  0.007  0.331
    2  0.000  0.000  0.000  0.000  0.000  0.073  0.000  0.072  0.000  0.145
    3  0.000  0.000  0.000  0.000  0.005  0.218  0.000  0.213  0.005  0.441
    4  0.000  0.000  0.000  0.000  0.003  0.032  0.000  0.031  0.003  0.069
    5  0.000  0.000  0.000  0.000  0.000  0.000  0.000  0.000  0.000  0.000
tot    0.000  0.000  0.000  0.000  0.015  0.483  0.000  0.472  0.015  0.986
 
band    22 # energy   -4.25839283 # occ.  2.00000000
 
ion      s     py     pz     px    dxy    dyz    dz2    dxz  x2-y2    tot
    1  0.000  0.000  0.000  0.000  0.006  0.156  0.000  0.159  0.006  0.328
    2  0.000  0.000  0.000  0.000  0.000  0.066  0.000  0.067  0.000  0.134
    3  0.000  0.000  0.000  0.000  0.006  0.213  0.000  0.217  0.006  0.441
    4  0.000  0.000  0.000  0.000  0.003  0.038  0.000  0.039  0.003  0.084
    5  0.000  0.000  0.000  0.000  0.000  0.000  0.000  0.000  0.000  0.000
tot    0.000  0.000  0.000  0.000  0.015  0.473  0.000  0.482  0.015  0.986
 
band    23 # energy   -3.98233149 # occ.  2.00000000
 
ion      s     py     pz     px    dxy    dyz    dz2    dxz  x2-y2    tot
    1  0.000  0.000  0.000  0.000  0.002  0.396  0.000  0.194  0.005  0.596
    2  0.000  0.000  0.000  0.000  0.008  0.179  0.000  0.087  0.015  0.289
    3  0.000  0.000  0.000  0.000  0.002  0.061  0.000  0.029  0.004  0.096
    4  0.000  0.000  0.000  0.000  0.000  0.005  0.000  0.002  0.001  0.008
    5  0.000  0.000  0.000  0.000  0.000  0.000  0.000  0.000  0.000  0.000
tot    0.000  0.000  0.000  0.000  0.012  0.640  0.000  0.313  0.025  0.990
 
band    24 # energy   -3.98184053 # occ.  2.00000000
 
ion      s     py     pz     px    dxy    dyz    dz2    dxz  x2-y2    tot
    1  0.000  0.000  0.000  0.000  0.005  0.192  0.000  0.394  0.002  0.594
    2  0.000  0.000  0.000  0.000  0.015  0.087  0.000  0.179  0.008  0.289
    3  0.000  0.000  0.000  0.000  0.004  0.030  0.000  0.061  0.002  0.098
    4  0.000  0.000  0.000  0.000  0.001  0.003  0.000  0.005  0.000  0.009
    5  0.000  0.000  0.000  0.000  0.000  0.000  0.000  0.000  0.000  0.000
tot    0.000  0.000  0.000  0.000  0.025  0.312  0.000  0.640  0.012  0.990
 
band    25 # energy   -2.91363873 # occ.  2.00000000
 
ion      s     py     pz     px    dxy    dyz    dz2    dxz  x2-y2    tot
    1  0.020  0.000  0.152  0.000  0.000  0.000  0.031  0.000  0.000  0.203
    2  0.015  0.000  0.079  0.000  0.000  0.000  0.023  0.000  0.000  0.117
    3  0.012  0.000  0.036  0.000  0.000  0.000  0.018  0.000  0.000  0.066
    4  0.009  0.000  0.012  0.000  0.000  0.000  0.008  0.000  0.000  0.030
    5  0.004  0.000  0.000  0.000  0.000  0.000  0.000  0.000  0.000  0.004
tot    0.060  0.000  0.279  0.000  0.000  0.000  0.081  0.000  0.000  0.421
 
band    26 # energy    1.60805193 # occ.  0.00000000
 
ion      s     py     pz     px    dxy    dyz    dz2    dxz  x2-y2    tot
    1  0.017  0.000  0.002  0.000  0.000  0.000  0.017  0.000  0.000  0.037
    2  0.025  0.000  0.001  0.000  0.000  0.000  0.023  0.000  0.000  0.049
    3  0.033  0.000  0.001  0.000  0.000  0.000  0.029  0.000  0.000  0.063
    4  0.036  0.000  0.000  0.000  0.000  0.000  0.037  0.000  0.000  0.073
    5  0.000  0.000  0.003  0.000  0.000  0.000  0.000  0.000  0.000  0.003
tot    0.111  0.000  0.007  0.000  0.000  0.000  0.106  0.000  0.000  0.224
 
band    27 # energy    1.93604761 # occ.  0.00000000
 
ion      s     py     pz     px    dxy    dyz    dz2    dxz  x2-y2    tot
    1  0.006  0.000  0.003  0.000  0.000  0.000  0.006  0.000  0.000  0.016
    2  0.001  0.000  0.004  0.000  0.000  0.000  0.001  0.000  0.000  0.007
    3  0.000  0.000  0.004  0.000  0.000  0.000  0.000  0.000  0.000  0.005
    4  0.003  0.000  0.003  0.000  0.000  0.000  0.004  0.000  0.000  0.010
    5  0.001  0.000  0.001  0.000  0.000  0.000  0.000  0.000  0.000  0.002
tot    0.011  0.000  0.016  0.000  0.000  0.000  0.012  0.000  0.000  0.039
 
band    28 # energy    2.36416035 # occ.  0.00000000
 
ion      s     py     pz     px    dxy    dyz    dz2    dxz  x2-y2    tot
    1  0.005  0.000  0.002  0.000  0.000  0.000  0.005  0.000  0.000  0.011
    2  0.001  0.000  0.003  0.000  0.000  0.000  0.001  0.000  0.000  0.005
    3  0.000  0.000  0.003  0.000  0.000  0.000  0.000  0.000  0.000  0.003
    4  0.002  0.000  0.002  0.000  0.000  0.000  0.003  0.000  0.000  0.007
    5  0.001  0.000  0.000  0.000  0.000  0.000  0.000  0.000  0.000  0.001
tot    0.008  0.000  0.010  0.000  0.000  0.000  0.009  0.000  0.000  0.027
 

 k-point     2 :    0.10000000 0.00000000 0.00000000     weight = 0.02000000

band     1 # energy  -11.30588645 # occ.  2.00000000
 
ion      s     py     pz     px    dxy    dyz    dz2    dxz  x2-y2    tot
    1  0.006  0.000  0.001  0.000  0.000  0.000  0.000  0.000  0.000  0.007
    2  0.040  0.000  0.002  0.001  0.000  0.000  0.000  0.000  0.000  0.042
    3  0.127  0.001  0.003  0.003  0.000  0.000  0.000  0.000  0.000  0.134
    4  0.297  0.002  0.000  0.007  0.001  0.000  0.008  0.000  0.000  0.316
    5  0.092  0.000  0.001  0.000  0.000  0.000  0.000  0.000  0.000  0.093
tot    0.561  0.004  0.006  0.011  0.001  0.000  0.008  0.001  0.000  0.592
 
band     2 # energy  -10.29373825 # occ.  2.00000000
 
ion      s     py     pz     px    dxy    dyz    dz2    dxz  x2-y2    tot
    1  0.111  0.001  0.010  0.002  0.000  0.000  0.000  0.001  0.000  0.126
    2  0.256  0.002  0.000  0.006  0.000  0.000  0.002  0.000  0.000  0.266
    3  0.053  0.000  0.017  0.001  0.000  0.000  0.000  0.001  0.000  0.073
    4  0.061  0.001  0.008  0.002  0.001  0.000  0.011  0.001  0.000  0.084
    5  0.040  0.000  0.000  0.000  0.000  0.000  0.000  0.000  0.000  0.040
tot    0.520  0.004  0.036  0.011  0.001  0.001  0.013  0.003  0.000  0.590
 
band     3 # energy   -8.71864090 # occ.  2.00000000
 
ion      s     py     pz     px    dxy    dyz    dz2    dxz  x2-y2    tot
    1  0.180  0.001  0.003  0.004  0.000  0.000  0.017  0.000  0.000  0.206
    2  0.005  0.000  0.045  0.000  0.000  0.002  0.001  0.005  0.000  0.057
    3  0.194  0.002  0.000  0.005  0.000  0.000  0.037  0.000  0.000  0.238
    4  0.007  0.000  0.032  0.000  0.001  0.002  0.026  0.005  0.000  0.072
    5  0.032  0.000  0.000  0.000  0.000  0.000  0.000  0.000  0.000  0.033
tot    0.418  0.003  0.079  0.010  0.001  0.003  0.081  0.010  0.000  0.607
 
band     4 # energy   -7.30015545 # occ.  2.00000000
 
ion      s     py     pz     px    dxy    dyz    dz2    dxz  x2-y2    tot
    1  0.104  0.001  0.004  0.004  0.001  0.000  0.133  0.000  0.000  0.248
    2  0.090  0.001  0.003  0.004  0.001  0.000  0.230  0.001  0.000  0.331
    3  0.026  0.000  0.015  0.001  0.000  0.001  0.089  0.003  0.000  0.135
    4  0.000  0.000  0.011  0.000  0.000  0.001  0.015  0.003  0.000  0.030
    5  0.005  0.000  0.000  0.000  0.000  0.000  0.000  0.000  0.000  0.005
tot    0.226  0.003  0.033  0.009  0.002  0.002  0.468  0.007  0.001  0.750
 
band     5 # energy   -6.11770585 # occ.  2.00000000
 
ion      s     py     pz     px    dxy    dyz    dz2    dxz  x2-y2    tot
    1  0.000  0.000  0.000  0.000  0.000  0.000  0.006  0.000  0.000  0.006
    2  0.001  0.000  0.000  0.000  0.001  0.000  0.002  0.000  0.000  0.006
    3  0.001  0.000  0.005  0.000  0.008  0.000  0.140  0.001  0.002  0.157
    4  0.007  0.000  0.038  0.001  0.043  0.022  0.403  0.078  0.012  0.605
    5  0.043  0.000  0.001  0.000  0.000  0.000  0.000  0.000  0.000  0.043
tot    0.052  0.001  0.044  0.001  0.052  0.022  0.551  0.079  0.015  0.817
 
band     6 # energy   -5.67803115 # occ.  2.00000000
 
ion      s     py     pz     px    dxy    dyz    dz2    dxz  x2-y2    tot
    1  0.001  0.000  0.001  0.000  0.000  0.000  0.025  0.000  0.000  0.027
    2  0.002  0.000  0.000  0.000  0.011  0.002  0.025  0.005  0.004  0.049
    3  0.000  0.000  0.010  0.000  0.022  0.004  0.187  0.012  0.008  0.244
    4  0.004  0.000  0.004  0.000  0.232  0.002  0.298  0.010  0.069  0.618
    5  0.000  0.000  0.000  0.000  0.000  0.000  0.000  0.000  0.000  0.001
tot    0.006  0.000  0.015  0.001  0.266  0.008  0.535  0.027  0.080  0.939
 
band     7 # energy   -5.58043999 # occ.  2.00000000
 
ion      s     py     pz     px    dxy    dyz    dz2    dxz  x2-y2    tot
    1  0.000  0.000  0.001  0.000  0.001  0.000  0.022  0.000  0.000  0.024
    2  0.001  0.000  0.000  0.000  0.049  0.001  0.040  0.002  0.017  0.109
    3  0.000  0.000  0.008  0.000  0.009  0.025  0.085  0.070  0.003  0.201
    4  0.001  0.000  0.012  0.001  0.345  0.008  0.041  0.024  0.162  0.593
    5  0.003  0.000  0.000  0.000  0.000  0.000  0.000  0.000  0.000  0.004
tot    0.005  0.000  0.021  0.001  0.404  0.034  0.188  0.095  0.183  0.932
 
band     8 # energy   -5.45435290 # occ.  2.00000000
 
ion      s     py     pz     px    dxy    dyz    dz2    dxz  x2-y2    tot
    1  0.000  0.000  0.000  0.000  0.000  0.000  0.001  0.000  0.000  0.002
    2  0.000  0.000  0.000  0.000  0.007  0.001  0.002  0.002  0.006  0.018
    3  0.000  0.000  0.000  0.000  0.002  0.034  0.006  0.013  0.001  0.056
    4  0.000  0.001  0.000  0.000  0.241  0.016  0.000  0.008  0.625  0.892
    5  0.000  0.001  0.000  0.000  0.000  0.000  0.000  0.000  0.000  0.001
tot    0.000  0.002  0.000  0.000  0.250  0.051  0.009  0.024  0.631  0.968
 
band     9 # energy   -5.37482637 # occ.  2.00000000
 
ion      s     py     pz     px    dxy    dyz    dz2    dxz  x2-y2    tot
    1  0.004  0.000  0.001  0.000  0.033  0.005  0.024  0.014  0.011  0.093
    2  0.003  0.000  0.008  0.000  0.016  0.016  0.320  0.050  0.006  0.419
    3  0.000  0.000  0.019  0.000  0.108  0.008  0.132  0.025  0.040  0.333
    4  0.002  0.000  0.005  0.000  0.017  0.004  0.021  0.015  0.006  0.071
    5  0.003  0.000  0.000  0.000  0.000  0.000  0.000  0.000  0.000  0.003
tot    0.012  0.000  0.033  0.000  0.173  0.034  0.498  0.105  0.063  0.918
 
band    10 # energy   -5.35581170 # occ.  2.00000000
 
ion      s     py     pz     px    dxy    dyz    dz2    dxz  x2-y2    tot
    1  0.002  0.000  0.001  0.000  0.014  0.001  0.077  0.002  0.005  0.102
    2  0.001  0.000  0.007  0.000  0.010  0.027  0.094  0.081  0.004  0.224
    3  0.001  0.000  0.010  0.001  0.308  0.003  0.056  0.008  0.096  0.482
    4  0.002  0.000  0.002  0.000  0.003  0.016  0.039  0.053  0.013  0.127
    5  0.001  0.000  0.000  0.000  0.000  0.000  0.000  0.000  0.000  0.002
tot    0.006  0.000  0.020  0.001  0.335  0.048  0.266  0.144  0.118  0.937
 
band    11 # energy   -5.27631044 # occ.  2.00000000
 
ion      s     py     pz     px    dxy    dyz    dz2    dxz  x2-y2    tot
    1  0.001  0.000  0.000  0.000  0.016  0.006  0.021  0.019  0.005  0.068
    2  0.001  0.000  0.000  0.001  0.512  0.000  0.011  0.001  0.174  0.700
    3  0.000  0.000  0.002  0.000  0.013  0.002  0.066  0.006  0.004  0.094
    4  0.001  0.000  0.003  0.000  0.032  0.007  0.021  0.021  0.009  0.093
    5  0.001  0.000  0.000  0.000  0.000  0.000  0.000  0.000  0.000  0.001
tot    0.003  0.000  0.005  0.001  0.572  0.016  0.119  0.047  0.192  0.955
 
band    12 # energy   -5.20813234 # occ.  2.00000000
 
ion      s     py     pz     px    dxy    dyz    dz2    dxz  x2-y2    tot
    1  0.000  0.000  0.000  0.000  0.002  0.002  0.000  0.000  0.009  0.015
    2  0.000  0.000  0.000  0.000  0.001  0.050  0.000  0.016  0.002  0.070
    3  0.000  0.000  0.000  0.000  0.162  0.022  0.000  0.007  0.510  0.701
    4  0.000  0.000  0.000  0.000  0.003  0.132  0.000  0.041  0.006  0.182
    5  0.000  0.000  0.000  0.000  0.000  0.000  0.000  0.000  0.000  0.000
tot    0.000  0.001  0.000  0.000  0.168  0.207  0.001  0.064  0.527  0.968
 
band    13 # energy   -5.12504553 # occ.  2.00000000
 
ion      s     py     pz     px    dxy    dyz    dz2    dxz  x2-y2    tot
    1  0.000  0.000  0.000  0.000  0.002  0.023  0.002  0.008  0.004  0.039
    2  0.000  0.001  0.000  0.000  0.211  0.007  0.001  0.002  0.604  0.826
    3  0.000  0.000  0.000  0.000  0.006  0.042  0.000  0.015  0.010  0.073
    4  0.000  0.000  0.000  0.000  0.007  0.001  0.000  0.000  0.020  0.029
    5  0.000  0.000  0.000  0.000  0.000  0.000  0.000  0.000  0.000  0.000
tot    0.000  0.001  0.000  0.000  0.226  0.074  0.003  0.026  0.637  0.968
 
band    14 # energy   -5.11255755 # occ.  2.00000000
 
ion      s     py     pz     px    dxy    dyz    dz2    dxz  x2-y2    tot
    1  0.003  0.000  0.003  0.000  0.012  0.003  0.395  0.008  0.005  0.429
    2  0.000  0.000  0.020  0.000  0.021  0.011  0.081  0.030  0.016  0.180
    3  0.000  0.000  0.010  0.000  0.165  0.016  0.003  0.048  0.050  0.293
    4  0.002  0.000  0.007  0.000  0.001  0.000  0.001  0.001  0.001  0.013
    5  0.003  0.000  0.000  0.000  0.000  0.000  0.000  0.000  0.000  0.003
tot    0.009  0.000  0.041  0.000  0.198  0.030  0.479  0.087  0.072  0.918
 
band    15 # energy   -4.99190654 # occ.  2.00000000
 
ion      s     py     pz     px    dxy    dyz    dz2    dxz  x2-y2    tot
    1  0.001  0.000  0.000  0.001  0.567  0.001  0.030  0.004  0.186  0.791
    2  0.000  0.000  0.006  0.000  0.003  0.004  0.013  0.015  0.001  0.043
    3  0.001  0.000  0.003  0.000  0.012  0.014  0.026  0.042  0.005  0.103
    4  0.000  0.000  0.000  0.000  0.005  0.002  0.000  0.008  0.002  0.019
    5  0.000  0.000  0.000  0.000  0.000  0.000  0.000  0.000  0.000  0.000
tot    0.003  0.000  0.009  0.001  0.588  0.022  0.069  0.070  0.195  0.956
 
band    16 # energy   -4.88291689 # occ.  2.00000000
 
ion      s     py     pz     px    dxy    dyz    dz2    dxz  x2-y2    tot
    1  0.000  0.001  0.000  0.000  0.168  0.012  0.000  0.004  0.516  0.701
    2  0.000  0.000  0.000  0.000  0.001  0.109  0.000  0.037  0.003  0.150
    3  0.000  0.000  0.000  0.000  0.005  0.013  0.000  0.004  0.017  0.040
    4  0.000  0.000  0.000  0.000  0.001  0.058  0.000  0.018  0.002  0.080
    5  0.000  0.000  0.000  0.000  0.000  0.000  0.000  0.000  0.000  0.000
tot    0.000  0.001  0.000  0.000  0.174  0.193  0.000  0.064  0.538  0.971
 
band    17 # energy   -4.76096235 # occ.  2.00000000
 
ion      s     py     pz     px    dxy    dyz    dz2    dxz  x2-y2    tot
    1  0.000  0.000  0.000  0.000  0.027  0.004  0.000  0.002  0.074  0.107
    2  0.000  0.000  0.000  0.000  0.005  0.005  0.000  0.003  0.024  0.037
    3  0.000  0.000  0.000  0.000  0.046  0.059  0.000  0.014  0.144  0.263
    4  0.000  0.000  0.000  0.000  0.008  0.409  0.000  0.136  0.021  0.574
    5  0.000  0.000  0.000  0.000  0.000  0.000  0.000  0.000  0.000  0.001
tot    0.000  0.000  0.000  0.000  0.086  0.476  0.000  0.155  0.263  0.981
 
band    18 # energy   -4.69684483 # occ.  2.00000000
 
ion      s     py     pz     px    dxy    dyz    dz2    dxz  x2-y2    tot
    1  0.000  0.000  0.000  0.000  0.034  0.007  0.002  0.018  0.010  0.072
    2  0.000  0.000  0.000  0.000  0.039  0.013  0.007  0.037  0.009  0.105
    3  0.002  0.000  0.001  0.000  0.064  0.059  0.019  0.219  0.018  0.383
    4  0.000  0.000  0.005  0.000  0.010  0.099  0.004  0.283  0.002  0.403
    5  0.004  0.000  0.000  0.000  0.000  0.000  0.000  0.000  0.000  0.004
tot    0.006  0.000  0.006  0.000  0.147  0.178  0.032  0.558  0.040  0.967
 
band    19 # energy   -4.49015878 # occ.  2.00000000
 
ion      s     py     pz     px    dxy    dyz    dz2    dxz  x2-y2    tot
    1  0.000  0.000  0.000  0.000  0.032  0.046  0.000  0.014  0.110  0.201
    2  0.000  0.000  0.000  0.000  0.014  0.272  0.000  0.073  0.052  0.411
    3  0.000  0.000  0.000  0.000  0.013  0.174  0.000  0.047  0.041  0.275
    4  0.000  0.000  0.000  0.000  0.002  0.064  0.000  0.023  0.007  0.096
    5  0.000  0.000  0.000  0.000  0.000  0.000  0.000  0.000  0.000  0.000
tot    0.000  0.000  0.000  0.000  0.060  0.555  0.000  0.157  0.210  0.984
 
band    20 # energy   -4.44669415 # occ.  2.00000000
 
ion      s     py     pz     px    dxy    dyz    dz2    dxz  x2-y2    tot
    1  0.000  0.000  0.004  0.000  0.035  0.092  0.002  0.297  0.008  0.439
    2  0.000  0.000  0.004  0.000  0.040  0.045  0.000  0.180  0.011  0.282
    3  0.003  0.000  0.001  0.000  0.008  0.015  0.024  0.054  0.002  0.108
    4  0.000  0.000  0.003  0.000  0.003  0.033  0.000  0.089  0.001  0.129
    5  0.002  0.000  0.000  0.000  0.000  0.000  0.000  0.000  0.000  0.002
tot    0.005  0.000  0.013  0.000  0.086  0.185  0.027  0.620  0.022  0.959
 
band    21 # energy   -4.28491820 # occ.  2.00000000
 
ion      s     py     pz     px    dxy    dyz    dz2    dxz  x2-y2    tot
    1  0.012  0.000  0.014  0.000  0.015  0.110  0.086  0.226  0.003  0.466
    2  0.001  0.000  0.001  0.000  0.010  0.063  0.002  0.258  0.003  0.340
    3  0.001  0.000  0.003  0.000  0.005  0.005  0.008  0.006  0.001  0.029
    4  0.001  0.000  0.004  0.000  0.001  0.013  0.000  0.045  0.000  0.065
    5  0.002  0.000  0.000  0.000  0.000  0.000  0.000  0.000  0.000  0.002
tot    0.017  0.000  0.023  0.001  0.030  0.191  0.097  0.536  0.008  0.902
 
band    22 # energy   -4.25898386 # occ.  2.00000000
 
ion      s     py     pz     px    dxy    dyz    dz2    dxz  x2-y2    tot
    1  0.000  0.000  0.000  0.000  0.003  0.213  0.001  0.100  0.013  0.330
    2  0.000  0.000  0.000  0.000  0.004  0.103  0.000  0.015  0.013  0.136
    3  0.000  0.000  0.000  0.000  0.001  0.330  0.000  0.110  0.006  0.446
    4  0.000  0.000  0.000  0.000  0.002  0.052  0.000  0.014  0.006  0.074
    5  0.000  0.000  0.000  0.000  0.000  0.000  0.000  0.000  0.000  0.000
tot    0.000  0.000  0.000  0.000  0.010  0.698  0.001  0.238  0.038  0.986
 
band    23 # energy   -3.97830320 # occ.  2.00000000
 
ion      s     py     pz     px    dxy    dyz    dz2    dxz  x2-y2    tot
    1  0.000  0.000  0.000  0.000  0.002  0.416  0.000  0.139  0.007  0.565
    2  0.000  0.000  0.000  0.000  0.005  0.220  0.000  0.072  0.016  0.313
    3  0.000  0.000  0.000  0.000  0.002  0.072  0.000  0.024  0.006  0.103