   10   10    1    1
  0.6132489E+02  0.5431010E-09  0.5431010E-09  0.2079101E-08  0.5000000E-15
  1.000000000000000E-004
  CAR 
 unknown system                          
     40      6     26
 
  0.0000000E+00  0.0000000E+00  0.0000000E+00  0.4000000E-01
    1      -12.874078   1.000000
    2      -11.249460   1.000000
    3       -9.273413   1.000000
    4       -9.131027   1.000000
    5       -9.130849   1.000000
    6       -8.897774   1.000000
    7       -8.320226   1.000000
    8       -8.146808   1.000000
    9       -5.951918   1.000000
   10       -4.799145   1.000000
   11       -4.701373   1.000000
   12       -4.701283   1.000000
   13       -3.817033   1.000000
   14       -3.817023   1.000000
   15       -2.821645   1.000000
   16       -2.818956   1.000000
   17       -2.460693   1.000000
   18       -2.460650   1.000000
   19       -2.196209   1.000000
   20       -2.196062   1.000000
   21       -1.808666   0.958389
   22       -1.252980   0.000000
   23       -0.230575   0.000000
   24       -0.127068   0.000000
   25        0.501943   0.000000
   26        0.585272   0.000000
 
  0.2000000E+00  0.0000000E+00  0.0000000E+00  0.1600000E+00
    1      -12.707046   1.000000
    2      -11.110051   1.000000
    3      -10.354092   1.000000
    4       -9.478180   1.000000
    5       -8.836080   1.000000
    6       -8.739200   1.000000
    7       -7.866724   1.000000
    8       -7.491376   1.000000
    9       -6.122474   1.000000
   10       -5.089682   1.000000
   11       -4.878883   1.000000
   12       -4.336095   1.000000
   13       -4.142704   1.000000
   14       -4.107701   1.000000
   15       -3.526849   1.000000
   16       -2.951715   1.000000
   17       -2.652108   1.000000
   18       -2.115794   1.000000
   19       -2.024450   0.999999
   20       -2.004131   0.999997
   21       -1.792329   0.933356
   22       -1.384150   0.000010
   23       -0.024014   0.000000
   24        0.339283   0.000000
   25        0.613844   0.000000
   26        0.728005   0.000000
 
  0.4000000E+00  0.0000000E+00  0.0000000E+00  0.1600000E+00
    1      -12.212143   1.000000
    2      -11.411179   1.000000
    3      -10.710244   1.000000
    4      -10.116353   1.000000
    5       -8.709901   1.000000
    6       -8.658538   1.000000
    7       -7.308085   1.000000
    8       -6.649051   1.000000
    9       -6.176950   1.000000
   10       -5.089536   1.000000
   11       -5.064654   1.000000
   12       -4.971881   1.000000
   13       -4.686513   1.000000
   14       -4.551153   1.000000
   15       -3.664111   1.000000
   16       -3.457725   1.000000
   17       -2.277683   1.000000
   18       -2.036810   1.000000
   19       -1.969019   0.999968
   20       -1.777331   0.901327
   21       -1.696115   0.555899
   22       -1.019669   0.000000
   23       -0.823850   0.000000
   24        0.105372   0.000000
   25        1.313830   0.000000
   26        1.799450   0.000000
 
  0.2000000E+00  0.2000000E+00  0.0000000E+00  0.1600000E+00
    1      -12.544113   1.000000
    2      -10.989031   1.000000
    3      -10.469786   1.000000
    4      -10.112142   1.000000
    5       -8.812546   1.000000
    6       -8.485165   1.000000
    7       -7.934714   1.000000
    8       -7.054963   1.000000
    9       -6.445334   1.000000
   10       -4.997826   1.000000
   11       -4.980783   1.000000
   12       -4.635487   1.000000
   13       -4.192272   1.000000
   14       -4.163201   1.000000
   15       -3.575791   1.000000
   16       -2.399762   1.000000
   17       -2.372783   1.000000
   18       -2.278926   1.000000
   19       -2.147571   1.000000
   20       -2.105446   1.000000
   21       -1.735893   0.759013
   22       -1.194120   0.000000
   23       -0.385941   0.000000
   24        0.347469   0.000000
   25        0.623054   0.000000
   26        1.094300   0.000000
 
  0.4000000E+00  0.2000000E+00  0.0000000E+00  0.3200000E+00
    1      -12.064557   1.000000
    2      -11.305316   1.000000
    3      -10.670965   1.000000
    4      -10.337920   1.000000
    5       -8.802610   1.000000
    6       -8.765811   1.000000
    7       -7.439320   1.000000
    8       -6.989585   1.000000
    9       -6.484957   1.000000
   10       -5.825385   1.000000
   11       -4.571654   1.000000
   12       -4.455444   1.000000
   13       -4.442436   1.000000
   14       -3.805596   1.000000
   15       -3.689208   1.000000
   16       -2.899774   1.000000
   17       -2.591885   1.000000
   18       -2.570270   1.000000
   19       -1.869120   0.995163
   20       -1.646121   0.285547
   21       -1.545655   0.023448
   22       -0.970410   0.000000
   23       -0.436842   0.000000
   24        0.355021   0.000000
   25        1.240974   0.000000
   26        1.451552   0.000000
 
  0.4000000E+00  0.4000000E+00  0.0000000E+00  0.1600000E+00
    1      -11.646365   1.000000
    2      -11.157821   1.000000
    3      -10.802513   1.000000
    4      -10.685205   1.000000
    5       -8.931514   1.000000
    6       -8.844418   1.000000
    7       -7.685594   1.000000
    8       -7.427909   1.000000
    9       -6.575796   1.000000
   10       -6.450710   1.000000
   11       -4.416606   1.000000
   12       -4.370987   1.000000
   13       -3.329470   1.000000
   14       -3.302720   1.000000
   15       -3.024984   1.000000
   16       -2.978959   1.000000
   17       -2.651281   1.000000
   18       -2.389649   1.000000
   19       -1.840376   0.985399
   20       -1.535491   0.016545
   21       -1.453112   0.000490
   22       -1.420052   0.000084
   23        0.382561   0.000000
   24        0.794927   0.000000
   25        0.860959   0.000000
   26        1.158697   0.000000
