unknown system                          
   1.00000000000000     
     5.431010    0.000000    0.000000
     0.000000    5.431010    0.000000
     0.000000    0.000000   20.791010
   Si
    10
Direct
  0.000000  0.000000  0.000000
  0.499999  0.499999  0.000000
  0.250000  0.250000  0.065305
  0.750000  0.750000  0.065305
  0.000000  0.499999  0.130609
  0.499999  0.000000  0.130609
  0.250000  0.750000  0.195914
  0.750000  0.250000  0.195914
  0.000000  0.000000  0.261219
  0.499999  0.499999  0.261219
 
   24   24   80
 0.12394     0.21318     0.47766     0.69518     0.76534     0.72688     0.59193     0.39458     0.20722     0.89949E-01
 0.39172E-01 0.21409E-01 0.17218E-01 0.21419E-01 0.39156E-01 0.90012E-01 0.20714     0.39469     0.59186     0.72691    
 0.76533     0.69518     0.47766     0.21318     0.21318     0.36653     0.62451     0.77371     0.80743     0.75472    
 0.61538     0.41736     0.23031     0.11006     0.53118E-01 0.29726E-01 0.21419E-01 0.22072E-01 0.34604E-01 0.75066E-01
 0.17688     0.35526     0.55391     0.69493     0.73693     0.66858     0.47309     0.26041     0.47766     0.62451    
 0.77201     0.83727     0.83322     0.76037     0.61083     0.41374     0.24013     0.13320     0.79695E-01 0.53080E-01
 0.39156E-01 0.34604E-01 0.42002E-01 0.72323E-01 0.15280     0.30991     0.50659     0.66186     0.72755     0.70065    
 0.59203     0.47309     0.69518     0.77371     0.83727     0.85518     0.82263     0.72831     0.57060     0.39037    
 0.25124     0.17220     0.13325     0.11010     0.90012E-01 0.75066E-01 0.72323E-01 0.89833E-01 0.14507     0.26540    
 0.44367     0.61036     0.70784     0.72991     0.70064     0.66858     0.76534     0.80743     0.83322     0.82263    
 0.76456     0.65279     0.50509     0.37156     0.28816     0.25121     0.24010     0.23022     0.20714     0.17688    
 0.15280     0.14507     0.16588     0.23497     0.36516     0.52191     0.64427     0.70787     0.72756     0.73694    
 0.72688     0.75472     0.76037     0.72831     0.65279     0.54546     0.44332     0.38345     0.37158     0.39039    
 0.41379     0.41744     0.39469     0.35526     0.30991     0.26540     0.23497     0.23994     0.29691     0.40340    
 0.52186     0.61033     0.66181     0.69490     0.59193     0.61538     0.61083     0.57060     0.50509     0.44332    
 0.41803     0.44332     0.50508     0.57058     0.61080     0.61533     0.59186     0.55391     0.50659     0.44367    
 0.36516     0.29691     0.27075     0.29693     0.36518     0.44375     0.50666     0.55399     0.39458     0.41736    
 0.41374     0.39037     0.37156     0.38345     0.44332     0.54546     0.65280     0.72832     0.76039     0.75474    
 0.72691     0.69493     0.66186     0.61036     0.52191     0.40340     0.29693     0.23993     0.23495     0.26536    
 0.30981     0.35516     0.20722     0.23031     0.24013     0.25124     0.28816     0.37158     0.50508     0.65280    
 0.76455     0.82263     0.83321     0.80742     0.76533     0.73693     0.72755     0.70784     0.64427     0.52186    
 0.36518     0.23495     0.16590     0.14509     0.15286     0.17698     0.89949E-01 0.11006     0.13320     0.17220    
 0.25121     0.39039     0.57058     0.72832     0.82263     0.85519     0.83727     0.77371     0.69518     0.66858    
 0.70065     0.72991     0.70787     0.61033     0.44375     0.26536     0.14509     0.89808E-01 0.72301E-01 0.75030E-01
 0.39172E-01 0.53118E-01 0.79695E-01 0.13325     0.24010     0.41379     0.61080     0.76039     0.83321     0.83727    
 0.77201     0.62451     0.47766     0.47309     0.59203     0.70064     0.72756     0.66181     0.50666     0.30981    
 0.15286     0.72301E-01 0.42019E-01 0.34618E-01 0.21409E-01 0.29726E-01 0.53080E-01 0.11010     0.23022     0.41744    
 0.61533     0.75474     0.80742     0.77371     0.62451     0.36653     0.21318     0.26041     0.47309     0.66858    
 0.73694     0.69490     0.55399     0.35516     0.17698     0.75030E-01 0.34618E-01 0.22064E-01 0.17218E-01 0.21419E-01
 0.39156E-01 0.90012E-01 0.20714     0.39469     0.59186     0.72691     0.76533     0.69518     0.47766     0.21318    
 0.12394     0.21318     0.47766     0.69518     0.76534     0.72688     0.59193     0.39458     0.20722     0.89949E-01
 0.39172E-01 0.21409E-01 0.21419E-01 0.22072E-01 0.34604E-01 0.75066E-01 0.17688     0.35526     0.55391     0.69493    
 0.73693     0.66858     0.47309     0.26041     0.21318     0.36653     0.62451     0.77371     0.80743     0.75472    
 0.61538     0.41736     0.23031     0.11006     0.53118E-01 0.29726E-01 0.39156E-01 0.34604E-01 0.42002E-01 0.72323E-01
 0.15280     0.30991     0.50659     0.66186     0.72755     0.70065     0.59203     0.47309     0.47766     0.62451    
 0.77201     0.83727     0.83322     0.76037     0.61083     0.41374     0.24013     0.13320     0.79695E-01 0.53080E-01
 0.90012E-01 0.75066E-01 0.72323E-01 0.89833E-01 0.14507     0.26540     0.44367     0.61036     0.70784     0.72991    
 0.70064     0.66858     0.69518     0.77371     0.83727     0.85518     0.82263     0.72831     0.57060     0.39037    
 0.25124     0.17220     0.13325     0.11010     0.20714     0.17688     0.15280     0.14507     0.16588     0.23497    
 0.36516     0.52191     0.64427     0.70787     0.72756     0.73694     0.76534     0.80743     0.83322     0.82263    
 0.76456     0.65279     0.50509     0.37156     0.28816     0.25121     0.24010     0.23022     0.39469     0.35526    
 0.30991     0.26540     0.23497     0.23994     0.29691     0.40340     0.52186     0.61033     0.66181     0.69490    
 0.72688     0.75472     0.76037     0.72831     0.65279     0.54546     0.44332     0.38345     0.37158     0.39039    
 0.41379     0.41744     0.59186     0.55391     0.50659     0.44367     0.36516     0.29691     0.27075     0.29693    
 0.36518     0.44375     0.50666     0.55399     0.59193     0.61538     0.61083     0.57060     0.50509     0.44332    
 0.41803     0.44332     0.50508     0.57058     0.61080     0.61533     0.72691     0.69493     0.66186     0.61036    
 0.52191     0.40340     0.29693     0.23993     0.23495     0.26536     0.30981     0.35516     0.39458     0.41736    
 0.41374     0.39037     0.37156     0.38345     0.44332     0.54546     0.65280     0.72832     0.76039     0.75474    
 0.76533     0.73693     0.72755     0.70784     0.64427     0.52186     0.36518     0.23495     0.16590     0.14509    
 0.15286     0.17698     0.20722     0.23031     0.24013     0.25124     0.28816     0.37158     0.50508     0.65280    
 0.76455     0.82263     0.83321     0.80742     0.69518     0.66858     0.70065     0.72991     0.70787     0.61033    
 0.44375     0.26536     0.14509     0.89808E-01 0.72301E-01 0.75030E-01 0.89949E-01 0.11006     0.13320     0.17220    
 0.25121     0.39039     0.57058     0.72832     0.82263     0.85519     0.83727     0.77371     0.47766     0.47309    
 0.59203     0.70064     0.72756     0.66181     0.50666     0.30981     0.15286     0.72301E-01 0.42019E-01 0.34618E-01
 0.39172E-01 0.53118E-01 0.79695E-01 0.13325     0.24010     0.41379     0.61080     0.76039     0.83321     0.83727    
 0.77201     0.62451     0.21318     0.26041     0.47309     0.66858     0.73694     0.69490     0.55399     0.35516    
 0.17698     0.75030E-01 0.34618E-01 0.22064E-01 0.21409E-01 0.29726E-01 0.53080E-01 0.11010     0.23022     0.41744    
 0.61533     0.75474     0.80742     0.77371     0.62451     0.36653     0.12726     0.22443     0.50418     0.71382    
 0.77122     0.72490     0.59458     0.41212     0.23346     0.11310     0.53975E-01 0.30421E-01 0.24420E-01 0.30425E-01
 0.53973E-01 0.11313     0.23345     0.41217     0.59457     0.72492     0.77122     0.71382     0.50418     0.22443    
 0.22443     0.45594     0.72443     0.83312     0.84363     0.78603     0.66000     0.47888     0.29233     0.15826    
 0.83903E-01 0.46905E-01 0.30425E-01 0.27457E-01 0.39109E-01 0.78550E-01 0.17260     0.33203     0.51165     0.64665    
 0.68741     0.60491     0.39664     0.21803     0.50418     0.72443     0.85495     0.89188     0.87757     0.81566    
 0.69571     0.51982     0.33951     0.20927     0.13101     0.83879E-01 0.53973E-01 0.39109E-01 0.40402E-01 0.63866E-01
 0.12941     0.25876     0.42765     0.57012     0.62882     0.58290     0.46436     0.39664     0.71382     0.83312    
 0.89188     0.90186     0.87729     0.81449     0.69776     0.53444     0.38297     0.27795     0.20931     0.15827    
 0.11313     0.78550E-01 0.63866E-01 0.72517E-01 0.11365     0.20682     0.35035     0.49389     0.58307     0.60143    
 0.58290     0.60492     0.77122     0.84363     0.87757     0.87729     0.84796     0.78006     0.66313     0.53232    
 0.43926     0.38294     0.33951     0.29228     0.23345     0.17260     0.12941     0.11365     0.12799     0.18171    
 0.28280     0.40790     0.51423     0.58311     0.62883     0.68743     0.72490     0.78603     0.81566     0.81449    
 0.78006     0.70385     0.60692     0.54472     0.53233     0.53445     0.51985     0.47889     0.41217     0.33203    
 0.25876     0.20682     0.18171     0.18847     0.23371     0.31436     0.40784     0.49388     0.57008     0.64665    
 0.59458     0.66000     0.69571     0.69776     0.66313     0.60692     0.57779     0.60692     0.66313     0.69774    
 0.69570     0.65997     0.59457     0.51165     0.42765     0.35035     0.28280     0.23371     0.21562     0.23373    
 0.28281     0.35041     0.42767     0.51169     0.41212     0.47888     0.51982     0.53444     0.53232     0.54472    
 0.60692     0.70385     0.78007     0.81450     0.81566     0.78603     0.72492     0.64665     0.57012     0.49389    
 0.40790     0.31436     0.23373     0.18846     0.18169     0.20680     0.25871     0.33201     0.23346     0.29233    
 0.33951     0.38297     0.43926     0.53233     0.66313     0.78007     0.84796     0.87729     0.87756     0.84363    
 0.77122     0.68741     0.62882     0.58307     0.51423     0.40784     0.28281     0.18169     0.12801     0.11367    
 0.12942     0.17264     0.11310     0.15826     0.20927     0.27795     0.38294     0.53445     0.69774     0.81450    
 0.87729     0.90186     0.89188     0.83312     0.71382     0.60491     0.58290     0.60143     0.58311     0.49388    
 0.35041     0.20680     0.11367     0.72506E-01 0.63856E-01 0.78544E-01 0.53975E-01 0.83903E-01 0.13101     0.20931    
 0.33951     0.51985     0.69570     0.81566     0.87756     0.89188     0.85495     0.72443     0.50418     0.39664    
 0.46436     0.58290     0.62883     0.57008     0.42767     0.25871     0.12942     0.63856E-01 0.40406E-01 0.39115E-01
 0.30421E-01 0.46905E-01 0.83879E-01 0.15827     0.29228     0.47889     0.65997     0.78603     0.84363     0.83312    
 0.72443     0.45594     0.22443     0.21803     0.39664     0.60492     0.68743     0.64665     0.51169     0.33201    
 0.17264     0.78544E-01 0.39115E-01 0.27455E-01 0.24420E-01 0.30425E-01 0.53973E-01 0.11313     0.23345     0.41217    
 0.59457     0.72492     0.77122     0.71382     0.50418     0.22443     0.12726     0.22443     0.50418     0.71382    
 0.77122     0.72490     0.59458     0.41212     0.23346     0.11310     0.53975E-01 0.30421E-01 0.30425E-01 0.27457E-01
 0.39109E-01 0.78550E-01 0.17260     0.33203     0.51165     0.64665     0.68741     0.60491     0.39664     0.21803    
 0.22443     0.45594     0.72443     0.83312     0.84363     0.78603     0.66000     0.47888     0.29233     0.15826    
 0.83903E-01 0.46905E-01 0.53973E-01 0.39109E-01 0.40402E-01 0.63866E-01 0.12941     0.25876     0.42765     0.57012    
 0.62882     0.58290     0.46436     0.39664     0.50418     0.72443     0.85495     0.89188     0.87757     0.81566    
 0.69571     0.51982     0.33951     0.20927     0.13101     0.83879E-01 0.11313     0.78550E-01 0.63866E-01 0.72517E-01
 0.11365     0.20682     0.35035     0.49389     0.58307     0.60143     0.58290     0.60492     0.71382     0.83312    
 0.89188     0.90186     0.87729     0.81449     0.69776     0.53444     0.38297     0.27795     0.20931     0.15827    
 0.23345     0.17260     0.12941     0.11365     0.12799     0.18171     0.28280     0.40790     0.51423     0.58311    
 0.62883     0.68743     0.77122     0.84363     0.87757     0.87729     0.84796     0.78006     0.66313     0.53232    
 0.43926     0.38294     0.33951     0.29228     0.41217     0.33203     0.25876     0.20682     0.18171     0.18847    
 0.23371     0.31436     0.40784     0.49388     0.57008     0.64665     0.72490     0.78603     0.81566     0.81449    
 0.78006     0.70385     0.60692     0.54472     0.53233     0.53445     0.51985     0.47889     0.59457     0.51165    
 0.42765     0.35035     0.28280     0.23371     0.21562     0.23373     0.28281     0.35041     0.42767     0.51169    
 0.59458     0.66000     0.69571     0.69776     0.66313     0.60692     0.57779     0.60692     0.66313     0.69774    
 0.69570     0.65997     0.72492     0.64665     0.57012     0.49389     0.40790     0.31436     0.23373     0.18846    
 0.18169     0.20680     0.25871     0.33201     0.41212     0.47888     0.51982     0.53444     0.53232     0.54472    
 0.60692     0.70385     0.78007     0.81450     0.81566     0.78603     0.77122     0.68741     0.62882     0.58307    
 0.51423     0.40784     0.28281     0.18169     0.12801     0.11367     0.12942     0.17264     0.23346     0.29233    
 0.33951     0.38297     0.43926     0.53233     0.66313     0.78007     0.84796     0.87729     0.87756     0.84363    
 0.71382     0.60491     0.58290     0.60143     0.58311     0.49388     0.35041     0.20680     0.11367     0.72506E-01
 0.63856E-01 0.78544E-01 0.11310     0.15826     0.20927     0.27795     0.38294     0.53445     0.69774     0.81450    
 0.87729     0.90186     0.89188     0.83312     0.50418     0.39664     0.46436     0.58290     0.62883     0.57008    
 0.42767     0.25871     0.12942     0.63856E-01 0.40406E-01 0.39115E-01 0.53975E-01 0.83903E-01 0.13101     0.20931    
 0.33951     0.51985     0.69570     0.81566     0.87756     0.89188     0.85495     0.72443     0.22443     0.21803    
 0.39664     0.60492     0.68743     0.64665     0.51169     0.33201     0.17264     0.78544E-01 0.39115E-01 0.27455E-01
 0.30421E-01 0.46905E-01 0.83879E-01 0.15827     0.29228     0.47889     0.65997     0.78603     0.84363     0.83312    
 0.72443     0.45594     0.31078     0.41632     0.63358     0.76320     0.78239     0.72148     0.59702     0.42938    
 0.26402     0.14658     0.80615E-01 0.50341E-01 0.41980E-01 0.50337E-01 0.80622E-01 0.14658     0.26407     0.42938    
 0.59705     0.72148     0.78240     0.76320     0.63358     0.41632     0.41632     0.64198     0.81745     0.87405    
 0.86510     0.80755     0.69841     0.53686     0.36152     0.22295     0.13214     0.78345E-01 0.50337E-01 0.41719E-01
 0.51876E-01 0.89809E-01 0.17391     0.31263     0.47235     0.60078     0.65827     0.61596     0.47962     0.36272    
 0.63358     0.81745     0.90040     0.91768     0.90192     0.85607     0.76275     0.61014     0.44250     0.30668    
 0.20579     0.13214     0.80622E-01 0.51876E-01 0.45360E-01 0.61558E-01 0.11210     0.21326     0.35082     0.47555    
 0.54236     0.52950     0.47253     0.47962     0.76320     0.87405     0.91768     0.92509     0.91272     0.87337    
 0.77867     0.62776     0.48955     0.39160     0.30669     0.22292     0.14658     0.89809E-01 0.61558E-01 0.59968E-01
 0.85839E-01 0.15084     0.25666     0.37008     0.45402     0.49724     0.52949     0.61597     0.78239     0.86510    
 0.90192     0.91272     0.90216     0.85150     0.73491     0.59710     0.52140     0.48953     0.44251     0.36151    
 0.26407     0.17391     0.11210     0.85839E-01 0.90114E-01 0.12529     0.19536     0.28601     0.37328     0.45405    
 0.54234     0.65827     0.72148     0.80755     0.85607     0.87337     0.85150     0.77015     0.64728     0.57952    
 0.59711     0.62776     0.61015     0.53684     0.42938     0.31263     0.21326     0.15084     0.12529     0.12901    
 0.16019     0.21585     0.28595     0.37008     0.47553     0.60081     0.59702     0.69841     0.76275     0.77867    
 0.73491     0.64728     0.59790     0.64728     0.73491     0.77867     0.76275     0.69841     0.59705     0.47235    
 0.35082     0.25666     0.19536     0.16019     0.14826     0.16021     0.19536     0.25670     0.35080     0.47236    
 0.42938     0.53686     0.61014     0.62776     0.59710     0.57952     0.64728     0.77016     0.85150     0.87337    
 0.85608     0.80755     0.72148     0.60078     0.47555     0.37008     0.28601     0.21585     0.16021     0.12900    
 0.12527     0.15084     0.21324     0.31267     0.26402     0.36152     0.44250     0.48955     0.52140     0.59711    
 0.73491     0.85150     0.90216     0.91272     0.90192     0.86509     0.78240     0.65827     0.54236     0.45402    
 0.37328     0.28595     0.19536     0.12527     0.90118E-01 0.85848E-01 0.11210     0.17391     0.14658     0.22295    
 0.30668     0.39160     0.48953     0.62776     0.77867     0.87337     0.91272     0.92509     0.91768     0.87404    
 0.76320     0.61596     0.52950     0.49724     0.45405     0.37008     0.25670     0.15084     0.85848E-01 0.59966E-01
 0.61555E-01 0.89820E-01 0.80615E-01 0.13214     0.20579     0.30669     0.44251     0.61015     0.76275     0.85608    
 0.90192     0.91768     0.90040     0.81745     0.63358     0.47962     0.47253     0.52949     0.54234     0.47553    
 0.35080     0.21324     0.11210     0.61555E-01 0.45360E-01 0.51874E-01 0.50341E-01 0.78345E-01 0.13214     0.22292    
 0.36151     0.53684     0.69841     0.80755     0.86509     0.87404     0.81745     0.64198     0.41632     0.36272    
 0.47962     0.61597     0.65827     0.60081     0.47236     0.31267     0.17391     0.89820E-01 0.51874E-01 0.41719E-01
 0.41980E-01 0.50337E-01 0.80622E-01 0.14658     0.26407     0.42938     0.59705     0.72148     0.78240     0.76320    
 0.63358     0.41632     0.31078     0.41632     0.63358     0.76320     0.78239     0.72148     0.59702     0.42938    
 0.26402     0.14658     0.80615E-01 0.50341E-01 0.50337E-01 0.41719E-01 0.51876E-01 0.89809E-01 0.17391     0.31263    
 0.47235     0.60078     0.65827     0.61596     0.47962     0.36272     0.41632     0.64198     0.81745     0.87405    
 0.86510     0.80755     0.69841     0.53686     0.36152     0.22295     0.13214     0.78345E-01 0.80622E-01 0.51876E-01
 0.45360E-01 0.61558E-01 0.11210     0.21326     0.35082     0.47555     0.54236     0.52950     0.47253     0.47962    
 0.63358     0.81745     0.90040     0.91768     0.90192     0.85607     0.76275     0.61014     0.44250     0.30668    
 0.20579     0.13214     0.14658     0.89809E-01 0.61558E-01 0.59968E-01 0.85839E-01 0.15084     0.25666     0.37008    
 0.45402     0.49724     0.52949     0.61597     0.76320     0.87405     0.91768     0.92509     0.91272     0.87337    
 0.77867     0.62776     0.48955     0.39160     0.30669     0.22292     0.26407     0.17391     0.11210     0.85839E-01
 0.90114E-01 0.12529     0.19536     0.28601     0.37328     0.45405     0.54234     0.65827     0.78239     0.86510    
 0.90192     0.91272     0.90216     0.85150     0.73491     0.59710     0.52140     0.48953     0.44251     0.36151    
 0.42938     0.31263     0.21326     0.15084     0.12529     0.12901     0.16019     0.21585     0.28595     0.37008    
 0.47553     0.60081     0.72148     0.80755     0.85607     0.87337     0.85150     0.77015     0.64728     0.57952    
 0.59711     0.62776     0.61015     0.53684     0.59705     0.47235     0.35082     0.25666     0.19536     0.16019    
 0.14826     0.16021     0.19536     0.25670     0.35080     0.47236     0.59702     0.69841     0.76275     0.77867    
 0.73491     0.64728     0.59790     0.64728     0.73491     0.77867     0.76275     0.69841     0.72148     0.60078    
 0.47555     0.37008     0.28601     0.21585     0.16021     0.12900     0.12527     0.15084     0.21324     0.31267    
 0.42938     0.53686     0.61014     0.62776     0.59710     0.57952     0.64728     0.77016     0.85150     0.87337    
 0.85608     0.80755     0.78240     0.65827     0.54236     0.45402     0.37328     0.28595     0.19536     0.12527    
 0.90118E-01 0.85848E-01 0.11210     0.17391     0.26402     0.36152     0.44250     0.48955     0.52140     0.59711    
 0.73491     0.85150     0.90216     0.91272     0.90192     0.86509     0.76320     0.61596     0.52950     0.49724    
 0.45405     0.37008     0.25670     0.15084     0.85848E-01 0.59966E-01 0.61555E-01 0.89820E-01 0.14658     0.22295    
 0.30668     0.39160     0.48953     0.62776     0.77867     0.87337     0.91272     0.92509     0.91768     0.87404    
 0.63358     0.47962     0.47253     0.52949     0.54234     0.47553     0.35080     0.21324     0.11210     0.61555E-01
 0.45360E-01 0.51874E-01 0.80615E-01 0.13214     0.20579     0.30669     0.44251     0.61015     0.76275     0.85608    
 0.90192     0.91768     0.90040     0.81745     0.41632     0.36272     0.47962     0.61597     0.65827     0.60081    
 0.47236     0.31267     0.17391     0.89820E-01 0.51874E-01 0.41719E-01 0.50341E-01 0.78345E-01 0.13214     0.22292    
 0.36151     0.53684     0.69841     0.80755     0.86509     0.87404     0.81745     0.64198     0.50284     0.56957    
 0.69304     0.76181     0.75758     0.69660     0.58761     0.44553     0.30953     0.20559     0.13533     0.96740E-01
 0.84998E-01 0.96730E-01 0.13534     0.20558     0.30957     0.44552     0.58764     0.69659     0.75759     0.76181    
 0.69304     0.56957     0.56957     0.72158     0.83220     0.86765     0.85558     0.80734     0.71488     0.58076    
 0.44105     0.32020     0.21969     0.14376     0.96730E-01 0.77447E-01 0.83830E-01 0.11846     0.18816     0.29845    
 0.43099     0.54266     0.60603     0.60612     0.54939     0.50558     0.69304     0.83220     0.89699     0.91330    
 0.90490     0.86884     0.78334     0.65126     0.52564     0.42357     0.32213     0.21971     0.13534     0.83830E-01
 0.64724E-01 0.72088E-01 0.10764     0.18038     0.28463     0.38429     0.45088     0.47875     0.49012     0.54938    
 0.76181     0.86765     0.91330     0.92857     0.92405     0.88529     0.77903     0.62758     0.53015     0.48488    
 0.42357     0.32018     0.20558     0.11846     0.72088E-01 0.58784E-01 0.70638E-01 0.11073     0.18143     0.26255    
 0.33347     0.39870     0.47875     0.60613     0.75758     0.85558     0.90490     0.92405     0.91405     0.84874    
 0.68720     0.52603     0.49486     0.53014     0.52565     0.44106     0.30957     0.18816     0.10764     0.70638E-01
 0.64756E-01 0.82758E-01 0.12487     0.18395     0.25021     0.33349     0.45086     0.60602     0.69660     0.80734    
 0.86884     0.88529     0.84874     0.71928     0.52234     0.44724     0.52603     0.62758     0.65126     0.58074    
 0.44552     0.29845     0.18038     0.11073     0.82758E-01 0.80998E-01 0.98512E-01 0.13300     0.18392     0.26255    
 0.38429     0.54269     0.58761     0.71488     0.78334     0.77903     0.68720     0.52234     0.43304     0.52234    
 0.68719     0.77903     0.78335     0.71489     0.58764     0.43099     0.28463     0.18143     0.12487     0.98512E-01
 0.90612E-01 0.98518E-01 0.12487     0.18145     0.28461     0.43098     0.44553     0.58076     0.65126     0.62758    
 0.52603     0.44724     0.52234     0.71928     0.84874     0.88529     0.86884     0.80733     0.69659     0.54266    
 0.38429     0.26255     0.18395     0.13300     0.98518E-01 0.80998E-01 0.82752E-01 0.11073     0.18037     0.29848    
 0.30953     0.44105     0.52564     0.53015     0.49486     0.52603     0.68719     0.84874     0.91405     0.92405    
 0.90490     0.85558     0.75759     0.60603     0.45088     0.33347     0.25021     0.18392     0.12487     0.82752E-01
 0.64756E-01 0.70641E-01 0.10763     0.18816     0.20559     0.32020     0.42357     0.48488     0.53014     0.62758    
 0.77903     0.88529     0.92405     0.92857     0.91330     0.86765     0.76181     0.60612     0.47875     0.39870    
 0.33349     0.26255     0.18145     0.11073     0.70641E-01 0.58785E-01 0.72087E-01 0.11847     0.13533     0.21969    
 0.32213     0.42357     0.52565     0.65126     0.78335     0.86884     0.90490     0.91330     0.89698     0.83220    
 0.69304     0.54939     0.49012     0.47875     0.45086     0.38429     0.28461     0.18037     0.10763     0.72087E-01
 0.64725E-01 0.83826E-01 0.96740E-01 0.14376     0.21971     0.32018     0.44106     0.58074     0.71489     0.80733    
 0.85558     0.86765     0.83220     0.72158     0.56957     0.50558     0.54938     0.60613     0.60602     0.54269    
 0.43098     0.29848     0.18816     0.11847     0.83826E-01 0.77445E-01 0.84998E-01 0.96730E-01 0.13534     0.20558    
 0.30957     0.44552     0.58764     0.69659     0.75759     0.76181     0.69304     0.56957     0.50284     0.56957    
 0.69304     0.76181     0.75758     0.69660     0.58761     0.44553     0.30953     0.20559     0.13533     0.96740E-01
 0.96730E-01 0.77447E-01 0.83830E-01 0.11846     0.18816     0.29845     0.43099     0.54266     0.60603     0.60612    
 0.54939     0.50558     0.56957     0.72158     0.83220     0.86765     0.85558     0.80734     0.71488     0.58076    
 0.44105     0.32020     0.21969     0.14376     0.13534     0.83830E-01 0.64724E-01 0.72088E-01 0.10764     0.18038    
 0.28463     0.38429     0.45088     0.47875     0.49012     0.54938     0.69304     0.83220     0.89699     0.91330    
 0.90490     0.86884     0.78334     0.65126     0.52564     0.42357     0.32213     0.21971     0.20558     0.11846    
 0.72088E-01 0.58784E-01 0.70638E-01 0.11073     0.18143     0.26255     0.33347     0.39870     0.47875     0.60613    
 0.76181     0.86765     0.91330     0.92857     0.92405     0.88529     0.77903     0.62758     0.53015     0.48488    
 0.42357     0.32018     0.30957     0.18816     0.10764     0.70638E-01 0.64756E-01 0.82758E-01 0.12487     0.18395    
 0.25021     0.33349     0.45086     0.60602     0.75758     0.85558     0.90490     0.92405     0.91405     0.84874    
 0.68720     0.52603     0.49486     0.53014     0.52565     0.44106     0.44552     0.29845     0.18038     0.11073    
 0.82758E-01 0.80998E-01 0.98512E-01 0.13300     0.18392     0.26255     0.38429     0.54269     0.69660     0.80734    
 0.86884     0.88529     0.84874     0.71928     0.52234     0.44724     0.52603     0.62758     0.65126     0.58074    
 0.58764     0.43099     0.28463     0.18143     0.12487     0.98512E-01 0.90612E-01 0.98518E-01 0.12487     0.18145    
 0.28461     0.43098     0.58761     0.71488     0.78334     0.77903     0.68720     0.52234     0.43304     0.52234    
 0.68719     0.77903     0.78335     0.71489     0.69659     0.54266     0.38429     0.26255     0.18395     0.13300    
 0.98518E-01 0.80998E-01 0.82752E-01 0.11073     0.18037     0.29848     0.44553     0.58076     0.65126     0.62758    
 0.52603     0.44724     0.52234     0.71928     0.84874     0.88529     0.86884     0.80733     0.75759     0.60603    
 0.45088     0.33347     0.25021     0.18392     0.12487     0.82752E-01 0.64756E-01 0.70641E-01 0.10763     0.18816    
 0.30953     0.44105     0.52564     0.53015     0.49486     0.52603     0.68719     0.84874     0.91405     0.92405    
 0.90490     0.85558     0.76181     0.60612     0.47875     0.39870     0.33349     0.26255     0.18145     0.11073    
 0.70641E-01 0.58785E-01 0.72087E-01 0.11847     0.20559     0.32020     0.42357     0.48488     0.53014     0.62758    
 0.77903     0.88529     0.92405     0.92857     0.91330     0.86765     0.69304     0.54939     0.49012     0.47875    
 0.45086     0.38429     0.28461     0.18037     0.10763     0.72087E-01 0.64725E-01 0.83826E-01 0.13533     0.21969    
 0.32213     0.42357     0.52565     0.65126     0.78335     0.86884     0.90490     0.91330     0.89698     0.83220    
 0.56957     0.50558     0.54938     0.60613     0.60602     0.54269     0.43098     0.29848     0.18816     0.11847    
 0.83826E-01 0.77445E-01 0.96740E-01 0.14376     0.21971     0.32018     0.44106     0.58074     0.71489     0.80733    
 0.85558     0.86765     0.83220     0.72158     0.53952     0.57654     0.64928     0.69547     0.69352     0.64599    
 0.56257     0.46872     0.38603     0.31243     0.24495     0.19705     0.18041     0.19704     0.24495     0.31243    
 0.38604     0.46871     0.56257     0.64598     0.69352     0.69547     0.64928     0.57653     0.57654     0.68876    
 0.78019     0.82012     0.81769     0.77623     0.69840     0.61040     0.53617     0.46265     0.37080     0.27233    
 0.19704     0.15924     0.15681     0.18340     0.23180     0.30071     0.38753     0.46931     0.51832     0.52827    
 0.51317     0.51368     0.64928     0.78019     0.85574     0.88539     0.88159     0.83772     0.74928     0.65766    
 0.60622     0.56709     0.49145     0.37082     0.24495     0.15681     0.11472     0.10748     0.12587     0.16798    
 0.23185     0.29933     0.34884     0.38478     0.42883     0.51317     0.69547     0.82012     0.88539     0.90954    
 0.89850     0.83389     0.69918     0.58246     0.56717     0.59115     0.56709     0.46264     0.31243     0.18340    
 0.10748     0.76228E-01 0.73329E-01 0.91703E-01 0.13016     0.17989     0.23002     0.29094     0.38478     0.52828    
 0.69352     0.81769     0.88159     0.89850     0.86776     0.74444     0.51653     0.39584     0.45515     0.56717    
 0.60622     0.53617     0.38604     0.23180     0.12587     0.73329E-01 0.56251E-01 0.60051E-01 0.80156E-01 0.11358    
 0.15891     0.23002     0.34884     0.51831     0.64599     0.77623     0.83772     0.83389     0.74444     0.50526    