       N       E                     dE             d eps       ncg     rms          rms(c)
DAV:   1     0.138798817555E+03    0.13880E+03   -0.87551E+03   312   0.614E+02
DAV:   2    -0.333327841007E+02   -0.17213E+03   -0.16938E+03   404   0.152E+02
DAV:   3    -0.470867914280E+02   -0.13754E+02   -0.13580E+02   368   0.453E+01
DAV:   4    -0.476320726687E+02   -0.54528E+00   -0.54181E+00   544   0.102E+01
DAV:   5    -0.476361451911E+02   -0.40725E-02   -0.40708E-02   448   0.974E-01    0.593E+00
RMM:   6    -0.466103761021E+02    0.10258E+01   -0.23110E+00   327   0.354E+00    0.324E+00
RMM:   7    -0.464225277692E+02    0.18785E+00   -0.13202E+00   340   0.312E+00    0.903E-01
RMM:   8    -0.464065180789E+02    0.16010E-01   -0.12706E-01   355   0.131E+00    0.225E-01
RMM:   9    -0.464070256718E+02   -0.50759E-03   -0.16005E-02   392   0.471E-01    0.912E-02
RMM:  10    -0.464072013906E+02   -0.17572E-03   -0.18095E-03   364   0.169E-01    0.433E-02
RMM:  11    -0.464074561145E+02   -0.25472E-03   -0.97927E-04   360   0.111E-01    0.236E-02
RMM:  12    -0.464076470748E+02   -0.19096E-03   -0.59592E-04   375   0.584E-02    0.186E-02
RMM:  13    -0.464079491660E+02   -0.30209E-03   -0.21006E-04   352   0.438E-02    0.845E-03
RMM:  14    -0.464080241246E+02   -0.74959E-04   -0.85595E-05   370   0.274E-02    0.797E-03
RMM:  15    -0.464080595696E+02   -0.35445E-04   -0.22278E-05   345   0.153E-02    0.254E-03
RMM:  16    -0.464080854670E+02   -0.25897E-04   -0.12314E-05   351   0.100E-02    0.273E-03
RMM:  17    -0.464081096164E+02   -0.24149E-04   -0.59395E-06   284   0.657E-03    0.156E-03
RMM:  18    -0.464081275713E+02   -0.17955E-04   -0.12014E-06   220   0.366E-03    0.786E-04
RMM:  19    -0.464081429102E+02   -0.15339E-04   -0.79943E-07   207   0.286E-03    0.711E-04
RMM:  20    -0.464081459925E+02   -0.30823E-05   -0.15954E-07   120   0.147E-03    0.225E-04
RMM:  21    -0.464081471130E+02   -0.11206E-05   -0.14913E-07   127   0.156E-03    0.119E-04
RMM:  22    -0.464081471809E+02   -0.67836E-07   -0.39175E-09    50   0.982E-04
   1 F= -.46408147E+02 E0= -.46386302E+02  d E =-.436899E-01
