PROCAR lm decomposed
# of k-points:    6         # of bands:  26         # of ions:  10

 k-point    1 :    0.00000000 0.00000000 0.00000000     weight = 0.04000000

band   1 # energy  -12.87407840 # occ.  2.00000000
 
ion      s     py     pz     px    dxy    dyz    dz2    dxz    dx2    tot
  1  0.014  0.000  0.001  0.000  0.000  0.000  0.000  0.000  0.000  0.016
  2  0.014  0.000  0.001  0.000  0.000  0.000  0.000  0.000  0.000  0.016
  3  0.054  0.000  0.001  0.000  0.000  0.000  0.000  0.000  0.000  0.054
  4  0.054  0.000  0.001  0.000  0.000  0.000  0.000  0.000  0.000  0.054
  5  0.078  0.000  0.000  0.000  0.000  0.000  0.000  0.000  0.000  0.078
  6  0.078  0.000  0.000  0.000  0.000  0.000  0.000  0.000  0.000  0.078
  7  0.054  0.000  0.001  0.000  0.000  0.000  0.000  0.000  0.000  0.054
  8  0.054  0.000  0.001  0.000  0.000  0.000  0.000  0.000  0.000  0.054
  9  0.014  0.000  0.001  0.000  0.000  0.000  0.000  0.000  0.000  0.016
 10  0.014  0.000  0.001  0.000  0.000  0.000  0.000  0.000  0.000  0.016
tot  0.429  0.000  0.009  0.000  0.000  0.000  0.000  0.000  0.000  0.438
 
band   2 # energy  -11.24945975 # occ.  2.00000000
 
ion      s     py     pz     px    dxy    dyz    dz2    dxz    dx2    tot
  1  0.047  0.000  0.002  0.000  0.000  0.000  0.000  0.000  0.000  0.049
  2  0.047  0.000  0.002  0.000  0.000  0.000  0.000  0.000  0.000  0.049
  3  0.057  0.000  0.002  0.000  0.000  0.000  0.000  0.000  0.000  0.059
  4  0.057  0.000  0.002  0.000  0.000  0.000  0.000  0.000  0.000  0.059
  5  0.000  0.000  0.008  0.000  0.000  0.000  0.000  0.000  0.000  0.008
  6  0.000  0.000  0.008  0.000  0.000  0.000  0.000  0.000  0.000  0.008
  7  0.057  0.000  0.002  0.000  0.000  0.000  0.000  0.000  0.000  0.059
  8  0.057  0.000  0.002  0.000  0.000  0.000  0.000  0.000  0.000  0.059
  9  0.047  0.000  0.002  0.000  0.000  0.000  0.000  0.000  0.000  0.049
 10  0.047  0.000  0.002  0.000  0.000  0.000  0.000  0.000  0.000  0.049
tot  0.418  0.000  0.033  0.000  0.000  0.000  0.000  0.000  0.000  0.451
 
band   3 # energy   -9.27341278 # occ.  2.00000000
 
ion      s     py     pz     px    dxy    dyz    dz2    dxz    dx2    tot
  1  0.000  0.000  0.000  0.000  0.000  0.000  0.000  0.000  0.000  0.000
  2  0.000  0.000  0.000  0.000  0.000  0.000  0.000  0.000  0.000  0.000
  3  0.000  0.011  0.000  0.011  0.000  0.000  0.000  0.000  0.000  0.022
  4  0.000  0.011  0.000  0.011  0.000  0.000  0.000  0.000  0.000  0.022
  5  0.203  0.000  0.000  0.000  0.000  0.000  0.000  0.000  0.000  0.203
  6  0.203  0.000  0.000  0.000  0.000  0.000  0.000  0.000  0.000  0.203
  7  0.000  0.011  0.000  0.011  0.000  0.000  0.000  0.000  0.000  0.022
  8  0.000  0.011  0.000  0.011  0.000  0.000  0.000  0.000  0.000  0.022
  9  0.000  0.000  0.000  0.000  0.000  0.000  0.000  0.000  0.000  0.000
 10  0.000  0.000  0.000  0.000  0.000  0.000  0.000  0.000  0.000  0.000
tot  0.406  0.044  0.000  0.044  0.000  0.000  0.000  0.000  0.000  0.493
 
band   4 # energy   -9.13102743 # occ.  2.00000000
 
ion      s     py     pz     px    dxy    dyz    dz2    dxz    dx2    tot
  1  0.000  0.010  0.000  0.010  0.000  0.000  0.000  0.000  0.000  0.020
  2  0.000  0.010  0.000  0.010  0.000  0.000  0.000  0.000  0.000  0.020
  3  0.202  0.000  0.000  0.000  0.000  0.000  0.000  0.000  0.000  0.202
  4  0.202  0.000  0.000  0.000  0.000  0.000  0.000  0.000  0.000  0.202
  5  0.000  0.012  0.000  0.012  0.000  0.000  0.000  0.000  0.000  0.024
  6  0.000  0.012  0.000  0.012  0.000  0.000  0.000  0.000  0.000  0.024
  7  0.000  0.000  0.000  0.000  0.000  0.000  0.000  0.000  0.000  0.000
  8  0.000  0.000  0.000  0.000  0.000  0.000  0.000  0.000  0.000  0.000
  9  0.000  0.000  0.000  0.000  0.000  0.000  0.000  0.000  0.000  0.000
 10  0.000  0.000  0.000  0.000  0.000  0.000  0.000  0.000  0.000  0.000
tot  0.403  0.045  0.000  0.045  0.000  0.000  0.000  0.000  0.000  0.492
 
band   5 # energy   -9.13084898 # occ.  2.00000000
 
ion      s     py     pz     px    dxy    dyz    dz2    dxz    dx2    tot
  1  0.000  0.000  0.000  0.000  0.000  0.000  0.000  0.000  0.000  0.000
  2  0.000  0.000  0.000  0.000  0.000  0.000  0.000  0.000  0.000  0.000
  3  0.000  0.000  0.000  0.000  0.000  0.000  0.000  0.000  0.000  0.000
  4  0.000  0.000  0.000  0.000  0.000  0.000  0.000  0.000  0.000  0.000
  5  0.000  0.012  0.000  0.012  0.000  0.000  0.000  0.000  0.000  0.024
  6  0.000  0.012  0.000  0.012  0.000  0.000  0.000  0.000  0.000  0.024
  7  0.202  0.000  0.000  0.000  0.000  0.000  0.000  0.000  0.000  0.202
  8  0.202  0.000  0.000  0.000  0.000  0.000  0.000  0.000  0.000  0.202
  9  0.000  0.010  0.000  0.010  0.000  0.000  0.000  0.000  0.000  0.020
 10  0.000  0.010  0.000  0.010  0.000  0.000  0.000  0.000  0.000  0.020
tot  0.403  0.045  0.000  0.045  0.000  0.000  0.000  0.000  0.000  0.492
 
band   6 # energy   -8.89777425 # occ.  2.00000000
 
ion      s     py     pz     px    dxy    dyz    dz2    dxz    dx2    tot
  1  0.066  0.000  0.000  0.000  0.000  0.000  0.000  0.000  0.000  0.066
  2  0.066  0.000  0.000  0.000  0.000  0.000  0.000  0.000  0.000  0.066
  3  0.001  0.000  0.017  0.000  0.000  0.000  0.000  0.000  0.000  0.018
  4  0.001  0.000  0.017  0.000  0.000  0.000  0.000  0.000  0.000  0.018
  5  0.065  0.000  0.000  0.000  0.000  0.000  0.000  0.000  0.000  0.065
  6  0.065  0.000  0.000  0.000  0.000  0.000  0.000  0.000  0.000  0.065
  7  0.001  0.000  0.017  0.000  0.000  0.000  0.000  0.000  0.000  0.018
  8  0.001  0.000  0.017  0.000  0.000  0.000  0.000  0.000  0.000  0.018
  9  0.066  0.000  0.000  0.000  0.000  0.000  0.000  0.000  0.000  0.066
 10  0.066  0.000  0.000  0.000  0.000  0.000  0.000  0.000  0.000  0.066
tot  0.397  0.000  0.071  0.000  0.000  0.000  0.000  0.000  0.000  0.467
 
band   7 # energy   -8.32022600 # occ.  2.00000000
 
ion      s     py     pz     px    dxy    dyz    dz2    dxz    dx2    tot
  1  0.096  0.000  0.003  0.000  0.000  0.000  0.000  0.000  0.000  0.100
  2  0.096  0.000  0.003  0.000  0.000  0.000  0.000  0.000  0.000  0.100
  3  0.000  0.010  0.000  0.010  0.000  0.000  0.000  0.000  0.000  0.021
  4  0.000  0.010  0.000  0.010  0.000  0.000  0.000  0.000  0.000  0.021
  5  0.000  0.000  0.000  0.000  0.000  0.000  0.000  0.000  0.000  0.000
  6  0.000  0.000  0.000  0.000  0.000  0.000  0.000  0.000  0.000  0.000
  7  0.000  0.010  0.000  0.010  0.000  0.000  0.000  0.000  0.000  0.021
  8  0.000  0.010  0.000  0.010  0.000  0.000  0.000  0.000  0.000  0.021
  9  0.096  0.000  0.003  0.000  0.000  0.000  0.000  0.000  0.000  0.099
 10  0.096  0.000  0.003  0.000  0.000  0.000  0.000  0.000  0.000  0.099
tot  0.385  0.042  0.013  0.042  0.000  0.000  0.000  0.000  0.000  0.482
 
band   8 # energy   -8.14680848 # occ.  2.00000000
 
ion      s     py     pz     px    dxy    dyz    dz2    dxz    dx2    tot
  1  0.104  0.000  0.003  0.000  0.000  0.000  0.000  0.000  0.000  0.107
  2  0.104  0.000  0.003  0.000  0.000  0.000  0.000  0.000  0.000  0.107
  3  0.000  0.009  0.000  0.009  0.000  0.000  0.000  0.000  0.000  0.018
  4  0.000  0.009  0.000  0.009  0.000  0.000  0.000  0.000  0.000  0.018
  5  0.000  0.000  0.000  0.000  0.000  0.000  0.000  0.000  0.000  0.000
  6  0.000  0.000  0.000  0.000  0.000  0.000  0.000  0.000  0.000  0.000
  7  0.000  0.009  0.000  0.009  0.000  0.000  0.000  0.000  0.000  0.018
  8  0.000  0.009  0.000  0.009  0.000  0.000  0.000  0.000  0.000  0.018
  9  0.104  0.000  0.003  0.000  0.000  0.000  0.000  0.000  0.000  0.107
 10  0.104  0.000  0.003  0.000  0.000  0.000  0.000  0.000  0.000  0.107
tot  0.417  0.037  0.012  0.037  0.000  0.000  0.000  0.000  0.000  0.502
 
band   9 # energy   -5.95191840 # occ.  2.00000000
 
ion      s     py     pz     px    dxy    dyz    dz2    dxz    dx2    tot
  1  0.050  0.000  0.004  0.000  0.000  0.000  0.000  0.000  0.000  0.054
  2  0.050  0.000  0.004  0.000  0.000  0.000  0.000  0.000  0.000  0.054
  3  0.036  0.000  0.011  0.000  0.000  0.000  0.000  0.000  0.000  0.047
  4  0.036  0.000  0.011  0.000  0.000  0.000  0.000  0.000  0.000  0.047
  5  0.000  0.000  0.031  0.000  0.000  0.000  0.000  0.000  0.000  0.031
  6  0.000  0.000  0.031  0.000  0.000  0.000  0.000  0.000  0.000  0.031
  7  0.036  0.000  0.011  0.000  0.000  0.000  0.000  0.000  0.000  0.047
  8  0.036  0.000  0.011  0.000  0.000  0.000  0.000  0.000  0.000  0.047
  9  0.050  0.000  0.004  0.000  0.000  0.000  0.000  0.000  0.000  0.054
 10  0.050  0.000  0.004  0.000  0.000  0.000  0.000  0.000  0.000  0.054
tot  0.344  0.000  0.124  0.000  0.000  0.000  0.000  0.000  0.000  0.468
 
band  10 # energy   -4.79914525 # occ.  2.00000000
 
ion      s     py     pz     px    dxy    dyz    dz2    dxz    dx2    tot
  1  0.000  0.000  0.000  0.000  0.000  0.000  0.000  0.000  0.000  0.000
  2  0.000  0.000  0.000  0.000  0.000  0.000  0.000  0.000  0.000  0.000
  3  0.000  0.024  0.000  0.024  0.000  0.000  0.000  0.000  0.000  0.048
  4  0.000  0.024  0.000  0.024  0.000  0.000  0.000  0.000  0.000  0.048
  5  0.000  0.000  0.086  0.000  0.000  0.000  0.000  0.000  0.000  0.086
  6  0.000  0.000  0.086  0.000  0.000  0.000  0.000  0.000  0.000  0.086
  7  0.000  0.024  0.000  0.024  0.000  0.000  0.000  0.000  0.000  0.048
  8  0.000  0.024  0.000  0.024  0.000  0.000  0.000  0.000  0.000  0.048
  9  0.000  0.000  0.000  0.000  0.000  0.000  0.000  0.000  0.000  0.000
 10  0.000  0.000  0.000  0.000  0.000  0.000  0.000  0.000  0.000  0.000
tot  0.000  0.097  0.173  0.097  0.000  0.000  0.000  0.000  0.000  0.366
 
band  11 # energy   -4.70137292 # occ.  2.00000000
 
ion      s     py     pz     px    dxy    dyz    dz2    dxz    dx2    tot
  1  0.000  0.023  0.000  0.023  0.000  0.000  0.000  0.000  0.000  0.045
  2  0.000  0.023  0.000  0.023  0.000  0.000  0.000  0.000  0.000  0.045
  3  0.001  0.000  0.082  0.000  0.000  0.000  0.000  0.000  0.000  0.083
  4  0.001  0.000  0.082  0.000  0.000  0.000  0.000  0.000  0.000  0.083
  5  0.000  0.024  0.000  0.024  0.000  0.000  0.000  0.000  0.000  0.049
  6  0.000  0.024  0.000  0.024  0.000  0.000  0.000  0.000  0.000  0.049
  7  0.000  0.000  0.000  0.000  0.000  0.000  0.000  0.000  0.000  0.000
  8  0.000  0.000  0.000  0.000  0.000  0.000  0.000  0.000  0.000  0.000
  9  0.000  0.002  0.000  0.002  0.000  0.000  0.000  0.000  0.000  0.003
 10  0.000  0.002  0.000  0.002  0.000  0.000  0.000  0.000  0.000  0.003
tot  0.002  0.097  0.164  0.097  0.000  0.000  0.000  0.000  0.000  0.360
 
band  12 # energy   -4.70128256 # occ.  2.00000000
 
ion      s     py     pz     px    dxy    dyz    dz2    dxz    dx2    tot
  1  0.000  0.002  0.000  0.002  0.000  0.000  0.000  0.000  0.000  0.003
  2  0.000  0.002  0.000  0.002  0.000  0.000  0.000  0.000  0.000  0.003
  3  0.000  0.000  0.000  0.000  0.000  0.000  0.000  0.000  0.000  0.000
  4  0.000  0.000  0.000  0.000  0.000  0.000  0.000  0.000  0.000  0.000
  5  0.000  0.024  0.000  0.024  0.000  0.000  0.000  0.000  0.000  0.049
  6  0.000  0.024  0.000  0.024  0.000  0.000  0.000  0.000  0.000  0.049
  7  0.001  0.000  0.082  0.000  0.000  0.000  0.000  0.000  0.000  0.083
  8  0.001  0.000  0.082  0.000  0.000  0.000  0.000  0.000  0.000  0.083
  9  0.000  0.023  0.000  0.023  0.000  0.000  0.000  0.000  0.000  0.045
 10  0.000  0.023  0.000  0.023  0.000  0.000  0.000  0.000  0.000  0.045
tot  0.002  0.097  0.164  0.097  0.000  0.000  0.000  0.000  0.000  0.360
 
band  13 # energy   -3.81703270 # occ.  2.00000000
 
ion      s     py     pz     px    dxy    dyz    dz2    dxz    dx2    tot
  1  0.000  0.003  0.000  0.003  0.000  0.000  0.000  0.000  0.000  0.006
  2  0.000  0.003  0.000  0.003  0.000  0.000  0.000  0.000  0.000  0.006
  3  0.000  0.027  0.000  0.027  0.000  0.000  0.000  0.000  0.000  0.055
  4  0.000  0.027  0.000  0.027  0.000  0.000  0.000  0.000  0.000  0.055
  5  0.000  0.036  0.000  0.036  0.000  0.000  0.000  0.000  0.000  0.073
  6  0.000  0.036  0.000  0.036  0.000  0.000  0.000  0.000  0.000  0.073
  7  0.000  0.023  0.000  0.023  0.000  0.000  0.000  0.000  0.000  0.046
  8  0.000  0.023  0.000  0.023  0.000  0.000  0.000  0.000  0.000  0.046
  9  0.000  0.012  0.000  0.012  0.000  0.000  0.000  0.000  0.000  0.023
 10  0.000  0.012  0.000  0.012  0.000  0.000  0.000  0.000  0.000  0.023
tot  0.000  0.203  0.000  0.203  0.000  0.000  0.000  0.000  0.000  0.405
 
band  14 # energy   -3.81702329 # occ.  2.00000000
 
ion      s     py     pz     px    dxy    dyz    dz2    dxz    dx2    tot
  1  0.000  0.012  0.000  0.012  0.000  0.000  0.000  0.000  0.000  0.023
  2  0.000  0.012  0.000  0.012  0.000  0.000  0.000  0.000  0.000  0.023
  3  0.000  0.023  0.000  0.023  0.000  0.000  0.000  0.000  0.000  0.046
  4  0.000  0.023  0.000  0.023  0.000  0.000  0.000  0.000  0.000  0.046
  5  0.000  0.036  0.000  0.036  0.000  0.000  0.000  0.000  0.000  0.073
  6  0.000  0.036  0.000  0.036  0.000  0.000  0.000  0.000  0.000  0.073
  7  0.000  0.027  0.000  0.027  0.000  0.000  0.000  0.000  0.000  0.055
  8  0.000  0.027  0.000  0.027  0.000  0.000  0.000  0.000  0.000  0.055
  9  0.000  0.003  0.000  0.003  0.000  0.000  0.000  0.000  0.000  0.006
 10  0.000  0.003  0.000  0.003  0.000  0.000  0.000  0.000  0.000  0.006
tot  0.000  0.203  0.000  0.203  0.000  0.000  0.000  0.000  0.000  0.405
 
band  15 # energy   -2.82164549 # occ.  2.00000000
 
ion      s     py     pz     px    dxy    dyz    dz2    dxz    dx2    tot
  1  0.030  0.000  0.031  0.000  0.000  0.000  0.000  0.000  0.000  0.061
  2  0.029  0.000  0.029  0.000  0.000  0.000  0.000  0.000  0.000  0.059
  3  0.000  0.011  0.000  0.011  0.000  0.000  0.000  0.000  0.000  0.022
  4  0.000  0.011  0.000  0.011  0.000  0.000  0.000  0.000  0.000  0.022
  5  0.000  0.000  0.000  0.000  0.000  0.000  0.000  0.000  0.000  0.000
  6  0.000  0.000  0.000  0.000  0.000  0.000  0.000  0.000  0.000  0.000
  7  0.000  0.011  0.000  0.011  0.000  0.000  0.000  0.000  0.000  0.022
  8  0.000  0.011  0.000  0.011  0.000  0.000  0.000  0.000  0.000  0.022
  9  0.030  0.000  0.031  0.000  0.000  0.000  0.000  0.000  0.000  0.061
 10  0.029  0.000  0.029  0.000  0.000  0.000  0.000  0.000  0.000  0.058
tot  0.119  0.044  0.119  0.044  0.000  0.000  0.000  0.000  0.000  0.326
 
band  16 # energy   -2.81895625 # occ.  2.00000000
 
ion      s     py     pz     px    dxy    dyz    dz2    dxz    dx2    tot
  1  0.012  0.000  0.038  0.000  0.000  0.000  0.000  0.000  0.000  0.050
  2  0.013  0.000  0.039  0.000  0.000  0.000  0.000  0.000  0.000  0.052
  3  0.025  0.000  0.005  0.000  0.000  0.000  0.000  0.000  0.000  0.030
  4  0.025  0.000  0.005  0.000  0.000  0.000  0.000  0.000  0.000  0.030
  5  0.041  0.000  0.000  0.000  0.000  0.000  0.000  0.000  0.000  0.041
  6  0.041  0.000  0.000  0.000  0.000  0.000  0.000  0.000  0.000  0.041
  7  0.025  0.000  0.005  0.000  0.000  0.000  0.000  0.000  0.000  0.030
  8  0.025  0.000  0.005  0.000  0.000  0.000  0.000  0.000  0.000  0.030
  9  0.012  0.000  0.038  0.000  0.000  0.000  0.000  0.000  0.000  0.050
 10  0.013  0.000  0.039  0.000  0.000  0.000  0.000  0.000  0.000  0.052
tot  0.232  0.000  0.175  0.000  0.000  0.000  0.000  0.000  0.000  0.407
 
band  17 # energy   -2.46069326 # occ.  2.00000000
 
ion      s     py     pz     px    dxy    dyz    dz2    dxz    dx2    tot
  1  0.000  0.036  0.000  0.036  0.000  0.000  0.000  0.000  0.000  0.073
  2  0.000  0.036  0.000  0.036  0.000  0.000  0.000  0.000  0.000  0.073
  3  0.000  0.030  0.000  0.030  0.000  0.000  0.000  0.000  0.000  0.060
  4  0.000  0.030  0.000  0.030  0.000  0.000  0.000  0.000  0.000  0.060
  5  0.000  0.007  0.000  0.007  0.000  0.000  0.000  0.000  0.000  0.015
  6  0.000  0.007  0.000  0.007  0.000  0.000  0.000  0.000  0.000  0.015
  7  0.000  0.025  0.000  0.025  0.000  0.000  0.000  0.000  0.000  0.049
  8  0.000  0.025  0.000  0.025  0.000  0.000  0.000  0.000  0.000  0.049
  9  0.000  0.006  0.000  0.006  0.000  0.000  0.000  0.000  0.000  0.012
 10  0.000  0.006  0.000  0.006  0.000  0.000  0.000  0.000  0.000  0.012
tot  0.000  0.209  0.000  0.209  0.000  0.000  0.000  0.000  0.000  0.418
 
band  18 # energy   -2.46065018 # occ.  2.00000000
 
ion      s     py     pz     px    dxy    dyz    dz2    dxz    dx2    tot
  1  0.000  0.006  0.000  0.006  0.000  0.000  0.000  0.000  0.000  0.012
  2  0.000  0.006  0.000  0.006  0.000  0.000  0.000  0.000  0.000  0.012
  3  0.000  0.025  0.000  0.025  0.000  0.000  0.000  0.000  0.000  0.049
  4  0.000  0.025  0.000  0.025  0.000  0.000  0.000  0.000  0.000  0.049
  5  0.000  0.007  0.000  0.007  0.000  0.000  0.000  0.000  0.000  0.015
  6  0.000  0.007  0.000  0.007  0.000  0.000  0.000  0.000  0.000  0.015
  7  0.000  0.030  0.000  0.030  0.000  0.000  0.000  0.000  0.000  0.060
  8  0.000  0.030  0.000  0.030  0.000  0.000  0.000  0.000  0.000  0.060
  9  0.000  0.036  0.000  0.036  0.000  0.000  0.000  0.000  0.000  0.073
 10  0.000  0.037  0.000  0.037  0.000  0.000  0.000  0.000  0.000  0.073
tot  0.000  0.209  0.000  0.209  0.000  0.000  0.000  0.000  0.000  0.418
 
band  19 # energy   -2.19620928 # occ.  2.00000000
 
ion      s     py     pz     px    dxy    dyz    dz2    dxz    dx2    tot
  1  0.000  0.053  0.000  0.053  0.000  0.000  0.000  0.000  0.000  0.105
  2  0.000  0.053  0.000  0.053  0.000  0.000  0.000  0.000  0.000  0.105
  3  0.000  0.000  0.000  0.000  0.000  0.000  0.000  0.000  0.000  0.000
  4  0.000  0.000  0.000  0.000  0.000  0.000  0.000  0.000  0.000  0.000
  5  0.000  0.000  0.000  0.000  0.000  0.000  0.000  0.000  0.000  0.001
  6  0.000  0.000  0.000  0.000  0.000  0.000  0.000  0.000  0.000  0.001
  7  0.004  0.000  0.011  0.000  0.000  0.000  0.000  0.000  0.000  0.014
  8  0.004  0.000  0.011  0.000  0.000  0.000  0.000  0.000  0.000  0.014
  9  0.000  0.003  0.000  0.003  0.000  0.000  0.000  0.000  0.000  0.006
 10  0.000  0.003  0.000  0.003  0.000  0.000  0.000  0.000  0.000  0.006
tot  0.007  0.112  0.021  0.112  0.000  0.000  0.000  0.000  0.000  0.252
 
band  20 # energy   -2.19606215 # occ.  2.00000000
 
ion      s     py     pz     px    dxy    dyz    dz2    dxz    dx2    tot
  1  0.000  0.003  0.000  0.003  0.000  0.000  0.000  0.000  0.000  0.006
  2  0.000  0.003  0.000  0.003  0.000  0.000  0.000  0.000  0.000  0.006
  3  0.004  0.000  0.011  0.000  0.000  0.000  0.000  0.000  0.000  0.014
  4  0.004  0.000  0.011  0.000  0.000  0.000  0.000  0.000  0.000  0.014
  5  0.000  0.000  0.000  0.000  0.000  0.000  0.000  0.000  0.000  0.001
  6  0.000  0.000  0.000  0.000  0.000  0.000  0.000  0.000  0.000  0.001
  7  0.000  0.000  0.000  0.000  0.000  0.000  0.000  0.000  0.000  0.000
  8  0.000  0.000  0.000  0.000  0.000  0.000  0.000  0.000  0.000  0.000
  9  0.000  0.053  0.000  0.053  0.000  0.000  0.000  0.000  0.000  0.105
 10  0.000  0.053  0.000  0.053  0.000  0.000  0.000  0.000  0.000  0.105
tot  0.007  0.112  0.021  0.112  0.000  0.000  0.000  0.000  0.000  0.252
 
band  21 # energy   -1.80866598 # occ.  1.91677880
 
ion      s     py     pz     px    dxy    dyz    dz2    dxz    dx2    tot
  1  0.019  0.000  0.056  0.000  0.000  0.000  0.000  0.000  0.000  0.075
  2  0.019  0.000  0.056  0.000  0.000  0.000  0.000  0.000  0.000  0.075
  3  0.000  0.012  0.000  0.012  0.000  0.000  0.000  0.000  0.000  0.025
  4  0.000  0.012  0.000  0.012  0.000  0.000  0.000  0.000  0.000  0.025
  5  0.000  0.000  0.000  0.000  0.000  0.000  0.000  0.000  0.000  0.000
  6  0.000  0.000  0.000  0.000  0.000  0.000  0.000  0.000  0.000  0.000
  7  0.000  0.012  0.000  0.012  0.000  0.000  0.000  0.000  0.000  0.025
  8  0.000  0.012  0.000  0.012  0.000  0.000  0.000  0.000  0.000  0.025
  9  0.019  0.000  0.056  0.000  0.000  0.000  0.000  0.000  0.000  0.075
 10  0.019  0.000  0.056  0.000  0.000  0.000  0.000  0.000  0.000  0.075
tot  0.077  0.049  0.223  0.049  0.000  0.000  0.000  0.000  0.000  0.397
 
band  22 # energy   -1.25297980 # occ.  0.00000000
 
ion      s     py     pz     px    dxy    dyz    dz2    dxz    dx2    tot
  1  0.000  0.000  0.048  0.000  0.000  0.000  0.000  0.000  0.000  0.048
  2  0.000  0.000  0.048  0.000  0.000  0.000  0.000  0.000  0.000  0.048
  3  0.001  0.000  0.021  0.000  0.000  0.000  0.000  0.000  0.000  0.022
  4  0.001  0.000  0.021  0.000  0.000  0.000  0.000  0.000  0.000  0.022
  5  0.000  0.000  0.020  0.000  0.000  0.000  0.000  0.000  0.000  0.020
  6  0.000  0.000  0.020  0.000  0.000  0.000  0.000  0.000  0.000  0.020
  7  0.001  0.000  0.021  0.000  0.000  0.000  0.000  0.000  0.000  0.022
  8  0.001  0.000  0.021  0.000  0.000  0.000  0.000  0.000  0.000  0.022
  9  0.000  0.000  0.048  0.000  0.000  0.000  0.000  0.000  0.000  0.048
 10  0.000  0.000  0.048  0.000  0.000  0.000  0.000  0.000  0.000  0.048
tot  0.005  0.000  0.316  0.000  0.000  0.000  0.000  0.000  0.000  0.320
 
band  23 # energy   -0.23057456 # occ.  0.00000000
 
ion      s     py     pz     px    dxy    dyz    dz2    dxz    dx2    tot
  1  0.015  0.000  0.003  0.000  0.000  0.000  0.000  0.000  0.000  0.018
  2  0.015  0.000  0.003  0.000  0.000  0.000  0.000  0.000  0.000  0.018
  3  0.007  0.000  0.025  0.000  0.000  0.000  0.000  0.000  0.000  0.031
  4  0.007  0.000  0.025  0.000  0.000  0.000  0.000  0.000  0.000  0.031
  5  0.016  0.000  0.000  0.000  0.000  0.000  0.000  0.000  0.000  0.016
  6  0.016  0.000  0.000  0.000  0.000  0.000  0.000  0.000  0.000  0.016
  7  0.007  0.000  0.025  0.000  0.000  0.000  0.000  0.000  0.000  0.031
  8  0.007  0.000  0.025  0.000  0.000  0.000  0.000  0.000  0.000  0.031
  9  0.015  0.000  0.003  0.000  0.000  0.000  0.000  0.000  0.000  0.017
 10  0.015  0.000  0.003  0.000  0.000  0.000  0.000  0.000  0.000  0.017
tot  0.117  0.000  0.111  0.000  0.000  0.000  0.000  0.000  0.000  0.228
 
band  24 # energy   -0.12706806 # occ.  0.00000000
 
ion      s     py     pz     px    dxy    dyz    dz2    dxz    dx2    tot
  1  0.001  0.000  0.001  0.000  0.000  0.000  0.000  0.000  0.000  0.001
  2  0.001  0.000  0.001  0.000  0.000  0.000  0.000  0.000  0.000  0.001
  3  0.021  0.000  0.003  0.000  0.000  0.000  0.000  0.000  0.000  0.024
  4  0.021  0.000  0.003  0.000  0.000  0.000  0.000  0.000  0.000  0.024
  5  0.000  0.000  0.062  0.000  0.000  0.000  0.000  0.000  0.000  0.062
  6  0.000  0.000  0.062  0.000  0.000  0.000  0.000  0.000  0.000  0.062
  7  0.021  0.000  0.003  0.000  0.000  0.000  0.000  0.000  0.000  0.024
  8  0.021  0.000  0.003  0.000  0.000  0.000  0.000  0.000  0.000  0.024
  9  0.001  0.000  0.001  0.000  0.000  0.000  0.000  0.000  0.000  0.001
 10  0.001  0.000  0.001  0.000  0.000  0.000  0.000  0.000  0.000  0.001
tot  0.088  0.000  0.138  0.000  0.000  0.000  0.000  0.000  0.000  0.226
 
band  25 # energy    0.50194303 # occ.  0.00000000
 
ion      s     py     pz     px    dxy    dyz    dz2    dxz    dx2    tot
  1  0.000  0.031  0.000  0.032  0.000  0.000  0.000  0.000  0.000  0.064
  2  0.000  0.031  0.000  0.032  0.000  0.000  0.000  0.000  0.000  0.064
  3  0.000  0.000  0.000  0.000  0.000  0.000  0.000  0.000  0.000  0.001
  4  0.000  0.000  0.000  0.000  0.000  0.000  0.000  0.000  0.000  0.001
  5  0.000  0.023  0.000  0.024  0.000  0.000  0.000  0.000  0.000  0.047
  6  0.000  0.023  0.000  0.024  0.000  0.000  0.000  0.000  0.000  0.047
  7  0.000  0.001  0.000  0.001  0.000  0.000  0.000  0.000  0.000  0.001
  8  0.000  0.001  0.000  0.001  0.000  0.000  0.000  0.000  0.000  0.001
  9  0.000  0.035  0.000  0.036  0.000  0.000  0.000  0.000  0.000  0.072
 10  0.000  0.035  0.000  0.036  0.000  0.000  0.000  0.000  0.000  0.072
tot  0.000  0.181  0.000  0.187  0.000  0.000  0.000  0.000  0.000  0.369
 
band  26 # energy    0.58527175 # occ.  0.00000000
 
ion      s     py     pz     px    dxy    dyz    dz2    dxz    dx2    tot
  1  0.000  0.003  0.000  0.003  0.000  0.000  0.000  0.000  0.000  0.005
  2  0.000  0.003  0.000  0.003  0.000  0.000  0.000  0.000  0.000  0.005
  3  0.000  0.011  0.000  0.011  0.000  0.000  0.000  0.000  0.000  0.022
  4  0.000  0.010  0.000  0.010  0.000  0.000  0.000  0.000  0.000  0.019
  5  0.040  0.002  0.000  0.002  0.000  0.000  0.000  0.000  0.000  0.043
  6  0.040  0.002  0.000  0.002  0.000  0.000  0.000  0.000  0.000  0.043
  7  0.000  0.011  0.000  0.011  0.000  0.000  0.000  0.000  0.000  0.022
  8  0.000  0.009  0.000  0.009  0.000  0.000  0.000  0.000  0.000  0.018
  9  0.000  0.002  0.000  0.002  0.000  0.000  0.000  0.000  0.000  0.005
 10  0.000  0.002  0.000  0.002  0.000  0.000  0.000  0.000  0.000  0.005
tot  0.080  0.054  0.000  0.053  0.000  0.000  0.000  0.000  0.000  0.187
 

 k-point    2 :    0.20000000 0.00000000 0.00000000     weight = 0.16000000

band   1 # energy  -12.70704576 # occ.  2.00000000
 
ion      s     py     pz     px    dxy    dyz    dz2    dxz    dx2    tot
  1  0.014  0.000  0.001  0.000  0.000  0.000  0.000  0.000  0.000  0.016
  2  0.014  0.000  0.001  0.000  0.000  0.000  0.000  0.000  0.000  0.016
  3  0.054  0.000  0.001  0.000  0.000  0.000  0.000  0.000  0.000  0.055
  4  0.054  0.000  0.001  0.000  0.000  0.000  0.000  0.000  0.000  0.055
  5  0.078  0.000  0.000  0.001  0.000  0.000  0.000  0.000  0.000  0.079
  6  0.078  0.000  0.000  0.001  0.000  0.000  0.000  0.000  0.000  0.079
  7  0.054  0.000  0.001  0.000  0.000  0.000  0.000  0.000  0.000  0.055
  8  0.054  0.000  0.001  0.000  0.000  0.000  0.000  0.000  0.000  0.055
  9  0.014  0.000  0.001  0.000  0.000  0.000  0.000  0.000  0.000  0.016
 10  0.014  0.000  0.001  0.000  0.000  0.000  0.000  0.000  0.000  0.016
tot  0.428  0.000  0.008  0.003  0.000  0.000  0.000  0.000  0.000  0.440
 
band   2 # energy  -11.11005075 # occ.  2.00000000
 
ion      s     py     pz     px    dxy    dyz    dz2    dxz    dx2    tot
  1  0.047  0.000  0.002  0.000  0.000  0.000  0.000  0.000  0.000  0.049
  2  0.047  0.000  0.002  0.000  0.000  0.000  0.000  0.000  0.000  0.049
  3  0.058  0.000  0.002  0.000  0.000  0.000  0.000  0.000  0.000  0.060
  4  0.058  0.000  0.002  0.000  0.000  0.000  0.000  0.000  0.000  0.060
  5  0.000  0.000  0.008  0.000  0.000  0.000  0.000  0.000  0.000  0.008
  6  0.000  0.000  0.008  0.000  0.000  0.000  0.000  0.000  0.000  0.008
  7  0.058  0.000  0.002  0.000  0.000  0.000  0.000  0.000  0.000  0.060
  8  0.058  0.000  0.002  0.000  0.000  0.000  0.000  0.000  0.000  0.060
  9  0.047  0.000  0.002  0.000  0.000  0.000  0.000  0.000  0.000  0.049
 10  0.047  0.000  0.002  0.000  0.000  0.000  0.000  0.000  0.000  0.049
tot  0.419  0.001  0.032  0.002  0.000  0.000  0.000  0.000  0.000  0.454
 
band   3 # energy  -10.35409169 # occ.  2.00000000
 
ion      s     py     pz     px    dxy    dyz    dz2    dxz    dx2    tot
  1  0.008  0.001  0.001  0.002  0.000  0.000  0.000  0.000  0.000  0.012
  2  0.008  0.001  0.001  0.002  0.000  0.000  0.000  0.000  0.000  0.012
  3  0.052  0.001  0.000  0.006  0.000  0.000  0.000  0.000  0.000  0.059
  4  0.052  0.001  0.000  0.006  0.000  0.000  0.000  0.000  0.000  0.059
  5  0.087  0.000  0.000  0.009  0.000  0.000  0.000  0.000  0.000  0.096
  6  0.087  0.000  0.000  0.009  0.000  0.000  0.000  0.000  0.000  0.096
  7  0.052  0.001  0.000  0.006  0.000  0.000  0.000  0.000  0.000  0.059
  8  0.052  0.001  0.000  0.006  0.000  0.000  0.000  0.000  0.000  0.059
  9  0.008  0.001  0.001  0.002  0.000  0.000  0.000  0.000  0.000  0.012
 10  0.008  0.001  0.001  0.002  0.000  0.000  0.000  0.000  0.000  0.012
tot  0.414  0.008  0.003  0.050  0.000  0.000  0.000  0.000  0.000  0.476
 
band   4 # energy   -9.47817963 # occ.  2.00000000
 
ion      s     py     pz     px    dxy    dyz    dz2    dxz    dx2    tot
  1  0.025  0.003  0.001  0.004  0.000  0.000  0.000  0.000  0.000  0.033
  2  0.025  0.003  0.001  0.004  0.000  0.000  0.000  0.000  0.000  0.033
  3  0.081  0.001  0.000  0.001  0.000  0.000  0.000  0.000  0.000  0.083
  4  0.081  0.001  0.000  0.001  0.000  0.000  0.000  0.000  0.000  0.083
  5  0.000  0.013  0.002  0.000  0.000  0.000  0.000  0.000  0.000  0.015
  6  0.000  0.013  0.002  0.000  0.000  0.000  0.000  0.000  0.000  0.015
  7  0.081  0.001  0.000  0.001  0.000  0.000  0.000  0.000  0.000  0.083
  8  0.081  0.001  0.000  0.001  0.000  0.000  0.000  0.000  0.000  0.083
  9  0.025  0.003  0.001  0.004  0.000  0.000  0.000  0.000  0.000  0.033
 10  0.025  0.003  0.001  0.004  0.000  0.000  0.000  0.000  0.000  0.033
tot  0.422  0.042  0.009  0.020  0.000  0.000  0.000  0.000  0.000  0.493
 
band   5 # energy   -8.83608024 # occ.  2.00000000
 
ion      s     py     pz     px    dxy    dyz    dz2    dxz    dx2    tot
  1  0.066  0.000  0.000  0.000  0.000  0.000  0.000  0.000  0.000  0.066
  2  0.066  0.000  0.000  0.000  0.000  0.000  0.000  0.000  0.000  0.066
  3  0.001  0.001  0.016  0.000  0.000  0.000  0.000  0.000  0.000  0.018
  4  0.001  0.001  0.016  0.000  0.000  0.000  0.000  0.000  0.000  0.018
  5  0.067  0.000  0.000  0.000  0.000  0.000  0.000  0.000  0.000  0.067
  6  0.067  0.000  0.000  0.000  0.000  0.000  0.000  0.000  0.000  0.067
  7  0.001  0.001  0.016  0.000  0.000  0.000  0.000  0.000  0.000  0.018
  8  0.001  0.001  0.016  0.000  0.000  0.000  0.000  0.000  0.000  0.018
  9  0.066  0.000  0.000  0.000  0.000  0.000  0.000  0.000  0.000  0.066
 10  0.066  0.000  0.000  0.000  0.000  0.000  0.000  0.000  0.000  0.066
tot  0.402  0.005  0.066  0.000  0.000  0.000  0.000  0.000  0.000  0.473
 
band   6 # energy   -8.73920010 # occ.  2.00000000
 
ion      s     py     pz     px    dxy    dyz    dz2    dxz    dx2    tot
  1  0.042  0.001  0.002  0.001  0.000  0.000  0.000  0.000  0.000  0.045
  2  0.043  0.001  0.002  0.001  0.000  0.000  0.000  0.000  0.000  0.045
  3  0.011  0.018  0.001  0.000  0.000  0.000  0.000  0.000  0.000  0.030
  4  0.011  0.018  0.001  0.000  0.000  0.000  0.000  0.000  0.000  0.030
  5  0.091  0.000  0.000  0.003  0.000  0.000  0.000  0.000  0.000  0.094