<?xml version="1.0" encoding="ISO-8859-1"?>
<modeling>
 <generator>
  <i name="program" type="string">vasp </i>
  <i name="version" type="string">5.4.1  </i>
  <i name="subversion" type="string">05Feb16 (build Mar 02 2016 14:09:44) complex                          parallel </i>
  <i name="platform" type="string">Abel-impi-ifc-cuda </i>
  <i name="date" type="string">2019 10 04 </i>
  <i name="time" type="string">09:40:23 </i>
 </generator>
 <incar>
  <i type="string" name="PREC">normal    ! low/normal/accurate</i>
  <i type="string" name="ALGO"> Fast      ! Algorithm for electronic re</i>
  <i type="int" name="ISPIN">     1</i>
  <i type="int" name="NELMIN">     4</i>
  <i name="EDIFF">      0.00000100</i>
  <i type="int" name="NSW">     0</i>
  <i name="ENCUT">    250.00000000</i>
  <i type="int" name="NEDOS">  2401</i>
  <i type="string" name="LREAL"> Auto      ! Projection in reciprocal sp</i>
  <i name="EMIN">    -17.00000000</i>
  <i name="EMAX">      7.00000000</i>
  <i type="int" name="ISMEAR">     0</i>
  <i name="SIGMA">      0.10000000</i>
  <i type="logical" name="LWAVE"> F  </i>
  <i type="logical" name="LORBIT"> F  </i>
  <i type="logical" name="LELF"> T  </i>
  <v type="int" name="KPOINT_BSE">    -1     0     0     0</v>
 </incar>
 <kpoints>
  <generation param="Gamma">
   <v type="int" name="divisions">       5        5        1 </v>
   <v name="usershift">      0.00000000       0.00000000       0.00000000 </v>
   <v name="genvec1">      0.20000000       0.00000000       0.00000000 </v>
   <v name="genvec2">      0.00000000       0.20000000       0.00000000 </v>
   <v name="genvec3">      0.00000000       0.00000000       1.00000000 </v>
   <v name="shift">      0.00000000       0.00000000       0.00000000 </v>
  </generation>
  <varray name="kpointlist" >
   <v>       0.00000000       0.00000000       0.00000000 </v>
   <v>       0.20000000       0.00000000       0.00000000 </v>
   <v>       0.40000000       0.00000000       0.00000000 </v>
   <v>       0.20000000       0.20000000       0.00000000 </v>
   <v>       0.40000000       0.20000000       0.00000000 </v>
   <v>       0.40000000       0.40000000       0.00000000 </v>
  </varray>
  <varray name="weights" >
   <v>       0.04000000 </v>
   <v>       0.16000000 </v>
   <v>       0.16000000 </v>
   <v>       0.16000000 </v>
   <v>       0.32000000 </v>
   <v>       0.16000000 </v>
  </varray>
 </kpoints>
 <parameters>
  <separator name="general" >
   <i type="string" name="SYSTEM">unknown system</i>
   <i type="logical" name="LCOMPAT"> F  </i>
  </separator>
  <separator name="electronic" >
   <i type="string" name="PREC">normal</i>
   <i name="ENMAX">    250.00000000</i>
   <i name="ENAUG">    322.06900000</i>
   <i name="EDIFF">      0.00000100</i>
   <i type="int" name="IALGO">    68</i>
   <i type="int" name="IWAVPR">    10</i>
   <i type="int" name="NBANDS">    26</i>
   <i name="NELECT">     40.00000000</i>
   <i type="int" name="TURBO">     0</i>
   <i type="int" name="IRESTART">     0</i>
   <i type="int" name="NREBOOT">     0</i>
   <i type="int" name="NMIN">     0</i>
   <i name="EREF">      0.00000000</i>
   <separator name="electronic smearing" >
    <i type="int" name="ISMEAR">     0</i>
    <i name="SIGMA">      0.10000000</i>
    <i name="KSPACING">      0.50000000</i>
    <i type="logical" name="KGAMMA"> T  </i>
   </separator>
   <separator name="electronic projectors" >
    <i type="logical" name="LREAL"> T  </i>
    <v name="ROPT">     -0.00050000</v>
    <i type="int" name="LMAXPAW">  -100</i>
    <i type="int" name="LMAXMIX">     2</i>
    <i type="logical" name="NLSPLINE"> F  </i>
   </separator>
   <separator name="electronic startup" >
    <i type="int" name="ISTART">     0</i>
    <i type="int" name="ICHARG">     2</i>
    <i type="int" name="INIWAV">     1</i>
   </separator>
   <separator name="electronic spin" >
    <i type="int" name="ISPIN">     1</i>
    <i type="logical" name="LNONCOLLINEAR"> F  </i>
    <v name="MAGMOM">      1.00000000      1.00000000      1.00000000      1.00000000      1.00000000      1.00000000      1.00000000      1.00000000      1.00000000      1.00000000</v>
    <i name="NUPDOWN">     -1.00000000</i>
    <i type="logical" name="LSORBIT"> F  </i>
    <v name="SAXIS">      0.00000000      0.00000000      1.00000000</v>
    <i type="logical" name="LSPIRAL"> F  </i>
    <v name="QSPIRAL">      0.00000000      0.00000000      0.00000000</v>
    <i type="logical" name="LZEROZ"> F  </i>
   </separator>
   <separator name="electronic exchange-correlation" >
    <i type="logical" name="LASPH"> F  </i>
    <i type="logical" name="LMETAGGA"> F  </i>
   </separator>
   <separator name="electronic convergence" >
    <i type="int" name="NELM">    60</i>
    <i type="int" name="NELMDL">    -5</i>
    <i type="int" name="NELMIN">     4</i>
    <i name="ENINI">    250.00000000</i>
    <separator name="electronic convergence detail" >
     <i type="logical" name="LDIAG"> T  </i>
     <i type="logical" name="LSUBROT"> F  </i>
     <i name="WEIMIN">      0.00000000</i>
     <i name="EBREAK">      0.00000001</i>
     <i name="DEPER">      0.30000000</i>
     <i type="int" name="NRMM">     4</i>
     <i name="TIME">      0.40000000</i>
    </separator>
   </separator>
   <separator name="electronic mixer" >
    <i name="AMIX">      0.40000000</i>
    <i name="BMIX">      1.00000000</i>
    <i name="AMIN">      0.10000000</i>
    <i name="AMIX_MAG">      1.60000000</i>
    <i name="BMIX_MAG">      1.00000000</i>
    <separator name="electronic mixer details" >
     <i type="int" name="IMIX">     4</i>
     <i type="logical" name="MIXFIRST"> F  </i>
     <i type="int" name="MAXMIX">   -45</i>
     <i name="WC">    100.00000000</i>
     <i type="int" name="INIMIX">     1</i>
     <i type="int" name="MIXPRE">     1</i>
     <i type="int" name="MREMOVE">     5</i>
    </separator>
   </separator>
   <separator name="electronic dipolcorrection" >
    <i type="logical" name="LDIPOL"> F  </i>
    <i type="logical" name="LMONO"> F  </i>
    <i type="int" name="IDIPOL">     0</i>
    <i name="EPSILON">      1.00000000</i>
    <v name="DIPOL">   -100.00000000   -100.00000000   -100.00000000</v>
    <i name="EFIELD">      0.00000000</i>
   </separator>
  </separator>
  <separator name="grids" >
   <i type="int" name="NGX">    24</i>
   <i type="int" name="NGY">    24</i>
   <i type="int" name="NGZ">    80</i>
   <i type="int" name="NGXF">    48</i>
   <i type="int" name="NGYF">    48</i>
   <i type="int" name="NGZF">   160</i>
   <i type="logical" name="ADDGRID"> F  </i>
  </separator>
  <separator name="ionic" >
   <i type="int" name="NSW">     0</i>
   <i type="int" name="IBRION">    -1</i>
   <i type="int" name="ISIF">     2</i>
   <i name="PSTRESS">      0.00000000</i>
   <i name="EDIFFG">      0.00001000</i>
   <i type="int" name="NFREE">     0</i>
   <i name="POTIM">      0.50000000</i>
   <i name="SMASS">     -3.00000000</i>
   <i name="SCALEE">      1.00000000</i>
  </separator>
  <separator name="ionic md" >
   <i name="TEBEG">      0.00010000</i>
   <i name="TEEND">      0.00010000</i>
   <i type="int" name="NBLOCK">     1</i>
   <i type="int" name="KBLOCK">     1</i>
   <i type="int" name="NPACO">   256</i>
   <i name="APACO">     16.00000000</i>
  </separator>
  <separator name="symmetry" >
   <i type="int" name="ISYM">     2</i>
   <i name="SYMPREC">      0.00001000</i>
  </separator>
  <separator name="dos" >
   <i type="logical" name="LORBIT"> F  </i>
   <v name="RWIGS">     -1.00000000</v>
   <i type="int" name="NEDOS">  2401</i>
   <i name="EMIN">    -17.00000000</i>
   <i name="EMAX">      7.00000000</i>
   <i name="EFERMI">      0.00000000</i>
  </separator>
  <separator name="writing" >
   <i type="int" name="NWRITE">     2</i>
   <i type="logical" name="LWAVE"> F  </i>
   <i type="logical" name="LCHARG"> T  </i>
   <i type="logical" name="LPARD"> F  </i>
   <i type="logical" name="LVTOT"> F  </i>
   <i type="logical" name="LVHAR"> F  </i>
   <i type="logical" name="LELF"> T  </i>
   <i type="logical" name="LOPTICS"> F  </i>
   <v name="STM">      0.00000000      0.00000000      0.00000000      0.00000000      0.00000000      0.00000000      0.00000000</v>
  </separator>
  <separator name="performance" >
   <i type="int" name="NPAR">     2</i>
   <i type="int" name="NSIM">     4</i>
   <i type="int" name="NBLK">    -1</i>
   <i type="logical" name="LPLANE"> T  </i>
   <i type="logical" name="LSCALAPACK"> F  </i>
   <i type="logical" name="LSCAAWARE"> F  </i>
   <i type="logical" name="LSCALU"> F  </i>
   <i type="logical" name="LASYNC"> F  </i>
   <i type="logical" name="LORBITALREAL"> F  </i>
  </separator>
  <separator name="miscellaneous" >
   <i type="int" name="IDIOT">     3</i>
   <i type="logical" name="LMUSIC"> F  </i>
   <v name="POMASS">     28.08500000</v>
   <v name="DARWINR">      0.00000000</v>
   <v name="DARWINV">      1.00000000</v>
   <i type="logical" name="LCORR"> T  </i>
  </separator>
  <i type="logical" name="GGA_COMPAT"> T  </i>
  <i type="logical" name="LBERRY"> F  </i>
  <i type="int" name="ICORELEVEL">     0</i>
  <i type="logical" name="LDAU"> F  </i>
  <i type="int" name="I_CONSTRAINED_M">     0</i>
  <separator name="electronic exchange-correlation" >
   <i type="string" name="GGA">--</i>
   <i type="int" name="VOSKOWN">     0</i>
   <i type="logical" name="LHFCALC"> F  </i>
   <i type="string" name="PRECFOCK"></i>
   <i type="logical" name="LSYMGRAD"> F  </i>
   <i type="logical" name="LHFONE"> F  </i>
   <i type="logical" name="LRHFCALC"> F  </i>
   <i type="logical" name="LTHOMAS"> F  </i>
   <i type="logical" name="LMODELHF"> F  </i>
   <i name="ENCUT4O">     -1.00000000</i>
   <i type="int" name="EXXOEP">     0</i>
   <i type="int" name="FOURORBIT">     0</i>
   <i name="AEXX">      0.00000000</i>
   <i name="HFALPHA">      0.00000000</i>
   <i name="MCALPHA">      0.00000000</i>
   <i name="ALDAX">      1.00000000</i>
   <i name="AGGAX">      1.00000000</i>
   <i name="ALDAC">      1.00000000</i>
   <i name="AGGAC">      1.00000000</i>
   <i type="int" name="NKREDX">     1</i>
   <i type="int" name="NKREDY">     1</i>
   <i type="int" name="NKREDZ">     1</i>
   <i type="logical" name="SHIFTRED"> F  </i>
   <i type="logical" name="ODDONLY"> F  </i>
   <i type="logical" name="EVENONLY"> F  </i>
   <i type="int" name="LMAXFOCK">     0</i>
   <i type="int" name="NMAXFOCKAE">     0</i>
   <i type="logical" name="LFOCKAEDFT"> F  </i>
   <i name="HFSCREEN">      0.00000000</i>
   <i name="HFSCREENC">      0.00000000</i>
   <i type="int" name="NBANDSGWLOW">     0</i>
  </separator>
  <separator name="vdW DFT" >
   <i type="logical" name="LUSE_VDW"> F  </i>
   <i name="Zab_VDW">     -0.84910000</i>
   <i name="PARAM1">      0.12340000</i>
   <i name="PARAM2">      1.00000000</i>
   <i name="PARAM3">      0.00000000</i>
  </separator>
  <separator name="model GW" >
   <i type="int" name="MODEL_GW">     0</i>
   <i name="MODEL_EPS0">     36.79493521</i>
   <i name="MODEL_ALPHA">      1.00000000</i>
  </separator>
  <separator name="linear response parameters" >
   <i type="logical" name="LEPSILON"> F  </i>
   <i type="logical" name="LRPA"> F  </i>
   <i type="logical" name="LNABLA"> F  </i>
   <i type="logical" name="LVEL"> F  </i>
   <i type="int" name="KINTER">     0</i>
   <i name="CSHIFT">      0.10000000</i>
   <i name="OMEGAMAX">     -1.00000000</i>
   <i name="DEG_THRESHOLD">      0.00200000</i>
  </separator>
  <separator name="orbital magnetization" >
   <i type="logical" name="NUCIND"> F  </i>
   <v name="MAGPOS">      0.00000000      0.00000000      0.00000000</v>
   <i type="logical" name="LNICSALL"> T  </i>
   <i type="logical" name="ORBITALMAG"> F  </i>
   <i type="logical" name="LMAGBLOCH"> F  </i>
   <i type="logical" name="LCHIMAG"> F  </i>
   <i type="logical" name="LGAUGE"> T  </i>
   <i type="int" name="MAGATOM">     0</i>
   <v name="MAGDIPOL">      0.00000000      0.00000000      0.00000000</v>
   <v name="AVECCONST">      0.00000000      0.00000000      0.00000000</v>
  </separator>
  <separator name="response functions" >
   <i type="logical" name="LADDER"> F  </i>
   <i type="logical" name="LFXC"> F  </i>
   <i type="logical" name="LHARTREE"> T  </i>
   <i type="int" name="IBSE">     0</i>
   <v type="int" name="KPOINT">    -1     0     0     0</v>
   <i type="logical" name="LTCTE"> F  </i>
   <i type="logical" name="LTETE"> F  </i>
   <i type="logical" name="LTRIPLET"> F  </i>
   <i type="logical" name="LFXCEPS"> F  </i>
   <i type="logical" name="LFXHEG"> F  </i>
   <i type="int" name="NATURALO">     0</i>
   <i type="logical" name="L2ORDER"> F  </i>
   <i type="logical" name="LUSEW"> F  </i>
   <i name="ENCUTGW">     -2.00000000</i>
   <i name="ENCUTGWSOFT">     -2.00000000</i>
   <i name="ENCUTLF">     -1.00000000</i>
   <i type="int" name="LMAXMP2">    -1</i>
   <i name="SCISSOR">      0.00000000</i>
   <i type="int" name="NOMEGA">     0</i>
   <i type="int" name="NOMEGAR">     0</i>
   <i type="int" name="NBANDSGW">    -1</i>
   <i type="int" name="NBANDSO">    -1</i>
   <i type="int" name="NBANDSV">    -1</i>
   <i type="int" name="NELM">     1</i>
   <i type="int" name="NELMHF">     1</i>
   <i type="int" name="DIM">     3</i>
   <i type="int" name="ANTIRES">     0</i>
   <i name="OMEGAMAX">    -30.00000000</i>
   <i name="OMEGAMIN">    -30.00000000</i>
   <i name="OMEGATL">   -200.00000000</i>
   <i type="int" name="OMEGAGRID">     0</i>
   <i name="CSHIFT">     -0.10000000</i>
   <i type="logical" name="SELFENERGY"> F  </i>
   <i type="logical" name="LSPECTRAL"> F  </i>
   <i type="logical" name="LSPECTRALGW"> F  </i>
   <i type="logical" name="LSINGLES"> F  </i>
   <i type="logical" name="LFERMIGW"> F  </i>
   <i type="logical" name="ODDONLYGW"> F  </i>
   <i type="logical" name="EVENONLYGW"> F  </i>
   <i type="int" name="NKREDLFX">     1</i>
   <i type="int" name="NKREDLFY">     1</i>
   <i type="int" name="NKREDLFZ">     1</i>
   <i type="int" name="MAXMEM">  1800</i>
   <i type="int" name="TELESCOPE">     0</i>
   <i type="int" name="TAUPAR">     1</i>
   <i type="int" name="OMEGAPAR">    -1</i>
   <i name="LAMBDA">      1.00000000</i>
  </separator>
  <separator name="External order field" >
   <i name="OFIELD_KAPPA">      0.00000000</i>
   <v name="OFIELD_K">      0.00000000      0.00000000      0.00000000</v>
   <i name="OFIELD_Q6_NEAR">      0.00000000</i>
   <i name="OFIELD_Q6_FAR">      0.00000000</i>
   <i name="OFIELD_A">      0.00000000</i>
  </separator>
 </parameters>
 <atominfo>
  <atoms>      10 </atoms>
  <types>       1 </types>
  <array name="atoms" >
   <dimension dim="1">ion</dimension>
   <field type="string">element</field>
   <field type="int">atomtype</field>
   <set>
    <rc><c>Si</c><c>   1</c></rc>
    <rc><c>Si</c><c>   1</c></rc>
    <rc><c>Si</c><c>   1</c></rc>
    <rc><c>Si</c><c>   1</c></rc>
    <rc><c>Si</c><c>   1</c></rc>
    <rc><c>Si</c><c>   1</c></rc>
    <rc><c>Si</c><c>   1</c></rc>
    <rc><c>Si</c><c>   1</c></rc>
    <rc><c>Si</c><c>   1</c></rc>
    <rc><c>Si</c><c>   1</c></rc>
   </set>
  </array>
  <array name="atomtypes" >
   <dimension dim="1">type</dimension>
   <field type="int">atomspertype</field>
   <field type="string">element</field>
   <field>mass</field>
   <field>valence</field>
   <field type="string">pseudopotential</field>
   <set>
    <rc><c>  10</c><c>Si</c><c>     28.08500000</c><c>      4.00000000</c><c> PAW_PBE Si 05Jan2001                   </c></rc>
   </set>
  </array>
 </atominfo>
 <structure name="initialpos" >
  <crystal>
   <varray name="basis" >
    <v>       5.43101000       0.00000000       0.00000000 </v>
    <v>       0.00000000       5.43101000       0.00000000 </v>
    <v>       0.00000000       0.00000000      20.79101000 </v>
   </varray>
   <i name="volume">    613.24892023 </i>
   <varray name="rec_basis" >
    <v>       0.18412781       0.00000000       0.00000000 </v>
    <v>       0.00000000       0.18412781       0.00000000 </v>
    <v>       0.00000000       0.00000000       0.04809771 </v>
   </varray>
  </crystal>
  <varray name="positions" >
   <v>       0.00000000       0.00000000       0.00000000 </v>
   <v>       0.49999908       0.49999908       0.00000000 </v>
   <v>       0.24999954       0.24999954       0.06530467 </v>
   <v>       0.75000046       0.75000046       0.06530467 </v>
   <v>       0.00000000       0.49999908       0.13060934 </v>
   <v>       0.49999908       0.00000000       0.13060934 </v>
   <v>       0.24999954       0.75000046       0.19591448 </v>
   <v>       0.75000046       0.24999954       0.19591448 </v>
   <v>       0.00000000       0.00000000       0.26121915 </v>
   <v>       0.49999908       0.49999908       0.26121915 </v>
  </varray>
 </structure>
 <calculation>
  <scstep>
   <time name="dav">    0.29    0.29</time>
   <time name="total">    0.35    0.40</time>
   <energy>
    <i name="alphaZ">      5.48930088 </i>
    <i name="ewald">   2810.63904821 </i>
    <i name="hartreedc">  -3690.89293455 </i>
    <i name="XCdc">    -96.54888144 </i>
    <i name="pawpsdc">    329.77604058 </i>
    <i name="pawaedc">   -153.84263392 </i>
    <i name="eentropy">     -0.01209131 </i>
    <i name="bandstr">    -96.42652704 </i>
    <i name="atom">   1030.61749613 </i>
    <i name="e_fr_energy">    138.79881756 </i>
    <i name="e_wo_entrp">    138.81090886 </i>
    <i name="e_0_energy">    138.80486321 </i>
   </energy>
  </scstep>
  <scstep>
   <time name="dav">    0.35    0.36</time>
   <time name="total">    0.35    0.36</time>
   <energy>
    <i name="e_fr_energy">    -33.33278410 </i>
    <i name="e_wo_entrp">    -33.29608306 </i>
    <i name="e_0_energy">    -33.31443358 </i>
   </energy>
  </scstep>
  <scstep>
   <time name="dav">    0.33    0.33</time>
   <time name="total">    0.33    0.33</time>
   <energy>
    <i name="e_fr_energy">    -47.08679143 </i>
    <i name="e_wo_entrp">    -47.04520596 </i>
    <i name="e_0_energy">    -47.06599869 </i>
   </energy>
  </scstep>
  <scstep>
   <time name="dav">    0.45    0.45</time>
   <time name="total">    0.45    0.46</time>
   <energy>
    <i name="e_fr_energy">    -47.63207267 </i>
    <i name="e_wo_entrp">    -47.58557615 </i>
    <i name="e_0_energy">    -47.60882441 </i>
   </energy>
  </scstep>
  <scstep>
   <time name="dav">    0.38    0.38</time>
   <time name="total">    0.41    0.42</time>
   <energy>
    <i name="e_fr_energy">    -47.63614519 </i>
    <i name="e_wo_entrp">    -47.58961459 </i>
    <i name="e_0_energy">    -47.61287989 </i>
   </energy>
  </scstep>
  <scstep>
   <time name="diag">    0.05    0.06</time>
   <time name="diis">    0.19    0.19</time>
   <time name="orth">    0.01    0.01</time>
   <time name="total">    0.33    0.34</time>
   <energy>
    <i name="e_fr_energy">    -46.61037610 </i>
    <i name="e_wo_entrp">    -46.56398960 </i>
    <i name="e_0_energy">    -46.58718285 </i>
   </energy>
  </scstep>
  <scstep>
   <time name="diag">    0.05    0.05</time>
   <time name="diis">    0.19    0.19</time>
   <time name="orth">    0.01    0.01</time>
   <time name="total">    0.33    0.34</time>
   <energy>
    <i name="e_fr_energy">    -46.42252777 </i>
    <i name="e_wo_entrp">    -46.37946173 </i>
    <i name="e_0_energy">    -46.40099475 </i>
   </energy>
  </scstep>
  <scstep>
   <time name="diag">    0.05    0.05</time>
   <time name="diis">    0.20    0.20</time>
   <time name="orth">    0.01    0.01</time>
   <time name="total">    0.35    0.35</time>
   <energy>
    <i name="e_fr_energy">    -46.40651808 </i>
    <i name="e_wo_entrp">    -46.36276865 </i>
    <i name="e_0_energy">    -46.38464336 </i>
   </energy>
  </scstep>
  <scstep>
   <time name="diag">    0.05    0.05</time>
   <time name="diis">    0.22    0.22</time>
   <time name="orth">    0.01    0.01</time>
   <time name="total">    0.36    0.37</time>
   <energy>
    <i name="e_fr_energy">    -46.40702567 </i>
    <i name="e_wo_entrp">    -46.36376755 </i>
    <i name="e_0_energy">    -46.38539661 </i>
   </energy>
  </scstep>
  <scstep>
   <time name="diag">    0.05    0.05</time>
   <time name="diis">    0.21    0.21</time>
   <time name="orth">    0.01    0.01</time>
   <time name="total">    0.35    0.35</time>
   <energy>
    <i name="e_fr_energy">    -46.40720139 </i>
    <i name="e_wo_entrp">    -46.36372647 </i>
    <i name="e_0_energy">    -46.38546393 </i>
   </energy>
  </scstep>
  <scstep>
   <time name="diag">    0.05    0.05</time>
   <time name="diis">    0.21    0.21</time>
   <time name="orth">    0.01    0.01</time>
   <time name="total">    0.35    0.36</time>
   <energy>
    <i name="e_fr_energy">    -46.40745611 </i>
    <i name="e_wo_entrp">    -46.36376914 </i>
    <i name="e_0_energy">    -46.38561263 </i>
   </energy>
  </scstep>
  <scstep>
   <time name="diag">    0.05    0.05</time>
   <time name="diis">    0.21    0.21</time>
   <time name="orth">    0.01    0.01</time>
   <time name="total">    0.36    0.36</time>
   <energy>
    <i name="e_fr_energy">    -46.40764707 </i>
    <i name="e_wo_entrp">    -46.36404769 </i>
    <i name="e_0_energy">    -46.38584738 </i>
   </energy>
  </scstep>
  <scstep>
   <time name="diag">    0.05    0.05</time>
   <time name="diis">    0.20    0.20</time>
   <time name="orth">    0.01    0.01</time>
   <time name="total">    0.35    0.35</time>
   <energy>
    <i name="e_fr_energy">    -46.40794917 </i>
    <i name="e_wo_entrp">    -46.36427936 </i>
    <i name="e_0_energy">    -46.38611426 </i>
   </energy>
  </scstep>
  <scstep>
   <time name="diag">    0.05    0.05</time>
   <time name="diis">    0.21    0.21</time>
   <time name="orth">    0.01    0.01</time>
   <time name="total">    0.36    0.36</time>
   <energy>
    <i name="e_fr_energy">    -46.40802412 </i>
    <i name="e_wo_entrp">    -46.36432600 </i>
    <i name="e_0_energy">    -46.38617506 </i>
   </energy>
  </scstep>
  <scstep>
   <time name="diag">    0.05    0.05</time>
   <time name="diis">    0.19    0.19</time>
   <time name="orth">    0.01    0.01</time>
   <time name="total">    0.34    0.35</time>
   <energy>
    <i name="e_fr_energy">    -46.40805957 </i>
    <i name="e_wo_entrp">    -46.36437444 </i>
    <i name="e_0_energy">    -46.38621700 </i>
   </energy>
  </scstep>
  <scstep>
   <time name="diag">    0.05    0.05</time>
   <time name="diis">    0.20    0.20</time>
   <time name="orth">    0.01    0.01</time>
   <time name="total">    0.35    0.35</time>
   <energy>
    <i name="e_fr_energy">    -46.40808547 </i>
    <i name="e_wo_entrp">    -46.36439405 </i>
    <i name="e_0_energy">    -46.38623976 </i>
   </energy>
  </scstep>
  <scstep>
   <time name="diag">    0.05    0.05</time>
   <time name="diis">    0.16    0.17</time>
   <time name="orth">    0.01    0.01</time>
   <time name="total">    0.31    0.32</time>
   <energy>
    <i name="e_fr_energy">    -46.40810962 </i>
    <i name="e_wo_entrp">    -46.36442191 </i>
    <i name="e_0_energy">    -46.38626576 </i>
   </energy>
  </scstep>
  <scstep>
   <time name="diag">    0.05    0.05</time>
   <time name="diis">    0.13    0.13</time>
   <time name="orth">    0.01    0.01</time>
   <time name="total">    0.28    0.28</time>
   <energy>
    <i name="e_fr_energy">    -46.40812757 </i>
    <i name="e_wo_entrp">    -46.36443878 </i>
    <i name="e_0_energy">    -46.38628318 </i>
   </energy>
  </scstep>
  <scstep>
   <time name="diag">    0.05    0.05</time>
   <time name="diis">    0.13    0.13</time>
   <time name="orth">    0.01    0.01</time>
   <time name="total">    0.27    0.28</time>
   <energy>
    <i name="e_fr_energy">    -46.40814291 </i>
    <i name="e_wo_entrp">    -46.36445238 </i>
    <i name="e_0_energy">    -46.38629764 </i>
   </energy>
  </scstep>
  <scstep>
   <time name="diag">    0.05    0.05</time>
   <time name="diis">    0.10    0.10</time>
   <time name="orth">    0.01    0.01</time>
   <time name="total">    0.25    0.25</time>
   <energy>
    <i name="e_fr_energy">    -46.40814599 </i>
    <i name="e_wo_entrp">    -46.36445572 </i>
    <i name="e_0_energy">    -46.38630086 </i>
   </energy>
  </scstep>
  <scstep>
   <time name="diag">    0.05    0.05</time>
   <time name="diis">    0.10    0.10</time>
   <time name="orth">    0.01    0.01</time>
   <time name="total">    0.25    0.25</time>
   <energy>
    <i name="e_fr_energy">    -46.40814711 </i>
    <i name="e_wo_entrp">    -46.36445725 </i>
    <i name="e_0_energy">    -46.38630218 </i>
   </energy>
  </scstep>
  <scstep>
   <time name="diag">    0.05    0.05</time>
   <time name="diis">    0.08    0.08</time>
   <time name="orth">    0.01    0.01</time>
   <time name="total">    0.19    0.20</time>
   <energy>
    <i name="alphaZ">      5.48930088 </i>
    <i name="ewald">   2810.63904821 </i>
    <i name="hartreedc">  -3732.40321457 </i>
    <i name="XCdc">    -94.06870667 </i>
    <i name="pawpsdc">    362.53443717 </i>
    <i name="pawaedc">   -187.40166886 </i>
    <i name="eentropy">     -0.04368991 </i>
    <i name="bandstr">   -241.77114957 </i>
    <i name="atom">   1030.61749613 </i>
    <i name="e_fr_energy">    -46.40814718 </i>
    <i name="e_wo_entrp">    -46.36445727 </i>
    <i name="e_0_energy">    -46.38630222 </i>
   </energy>
  </scstep>
  <structure>
   <crystal>
    <varray name="basis" >
     <v>       5.43101000       0.00000000       0.00000000 </v>
     <v>       0.00000000       5.43101000       0.00000000 </v>
     <v>       0.00000000       0.00000000      20.79101000 </v>
    </varray>
    <i name="volume">    613.24892023 </i>
    <varray name="rec_basis" >
     <v>       0.18412781       0.00000000       0.00000000 </v>
     <v>       0.00000000       0.18412781       0.00000000 </v>
     <v>       0.00000000       0.00000000       0.04809771 </v>
    </varray>
   </crystal>
   <varray name="positions" >
    <v>       0.00000000       0.00000000       0.00000000 </v>
    <v>       0.49999908       0.49999908       0.00000000 </v>
    <v>       0.24999954       0.24999954       0.06530467 </v>
    <v>       0.75000046       0.75000046       0.06530467 </v>
    <v>       0.00000000       0.49999908       0.13060934 </v>
    <v>       0.49999908       0.00000000       0.13060934 </v>
    <v>       0.24999954       0.75000046       0.19591448 </v>
    <v>       0.75000046       0.24999954       0.19591448 </v>
    <v>       0.00000000       0.00000000       0.26121915 </v>
    <v>       0.49999908       0.49999908       0.26121915 </v>
   </varray>
  </structure>
  <varray name="forces" >
   <v>      -0.00000000      -0.00000000       0.13413972 </v>
   <v>       0.00000000       0.00000000       0.13413972 </v>
   <v>      -0.00000000      -0.00000000      -0.25562524 </v>
   <v>      -0.00000000      -0.00000000      -0.25562524 </v>
   <v>      -0.00000000      -0.00000000       0.00000000 </v>
   <v>       0.00000000      -0.00000000       0.00000000 </v>
   <v>      -0.00000000      -0.00000000       0.25562524 </v>
   <v>      -0.00000000      -0.00000000       0.25562524 </v>
   <v>      -0.00000000      -0.00000000      -0.13413972 </v>
   <v>      -0.00000000       0.00000000      -0.13413972 </v>
  </varray>
  <varray name="stress" >
   <v>      -6.31239190       0.00000000       0.00000000 </v>
   <v>       0.00000000      -6.31239190       0.00000000 </v>
   <v>       0.00000000       0.00000000      -1.41723317 </v>
  </varray>
  <energy>
   <i name="e_fr_energy">    -46.40814718 </i>
   <i name="e_wo_entrp">    -46.38630222 </i>
   <i name="e_0_energy">     -0.04368991 </i>
  </energy>
  <time name="totalsc">    8.12    8.48</time>
  <eigenvalues>
   <array>
    <dimension dim="1">band</dimension>
    <dimension dim="2">kpoint</dimension>
    <dimension dim="3">spin</dimension>
    <field>eigene</field>
    <field>occ</field>
    <set>
     <set comment="spin 1">
      <set comment="kpoint 1">
       <r>  -12.8741    1.0000 </r>
       <r>  -11.2495    1.0000 </r>
       <r>   -9.2734    1.0000 </r>
       <r>   -9.1310    1.0000 </r>
       <r>   -9.1308    1.0000 </r>
       <r>   -8.8978    1.0000 </r>
       <r>   -8.3202    1.0000 </r>
       <r>   -8.1468    1.0000 </r>
       <r>   -5.9519    1.0000 </r>
       <r>   -4.7991    1.0000 </r>
       <r>   -4.7014    1.0000 </r>
       <r>   -4.7013    1.0000 </r>
       <r>   -3.8170    1.0000 </r>
       <r>   -3.8170    1.0000 </r>
       <r>   -2.8216    1.0000 </r>
       <r>   -2.8190    1.0000 </r>
       <r>   -2.4607    1.0000 </r>
       <r>   -2.4607    1.0000 </r>
       <r>   -2.1962    1.0000 </r>
       <r>   -2.1961    1.0000 </r>
       <r>   -1.8087    0.9584 </r>
       <r>   -1.2530    0.0000 </r>
       <r>   -0.2306    0.0000 </r>
       <r>   -0.1271    0.0000 </r>
       <r>    0.5019    0.0000 </r>
       <r>    0.5853    0.0000 </r>
      </set>
      <set comment="kpoint 2">
       <r>  -12.7070    1.0000 </r>
       <r>  -11.1101    1.0000 </r>
       <r>  -10.3541    1.0000 </r>
       <r>   -9.4782    1.0000 </r>
       <r>   -8.8361    1.0000 </r>
       <r>   -8.7392    1.0000 </r>
       <r>   -7.8667    1.0000 </r>
       <r>   -7.4914    1.0000 </r>
       <r>   -6.1225    1.0000 </r>
       <r>   -5.0897    1.0000 </r>
       <r>   -4.8789    1.0000 </r>
       <r>   -4.3361    1.0000 </r>
       <r>   -4.1427    1.0000 </r>
       <r>   -4.1077    1.0000 </r>
       <r>   -3.5268    1.0000 </r>
       <r>   -2.9517    1.0000 </r>
       <r>   -2.6521    1.0000 </r>
       <r>   -2.1158    1.0000 </r>
       <r>   -2.0245    1.0000 </r>
       <r>   -2.0041    1.0000 </r>
       <r>   -1.7923    0.9334 </r>
       <r>   -1.3842    0.0000 </r>
       <r>   -0.0240    0.0000 </r>
       <r>    0.3393    0.0000 </r>
       <r>    0.6138    0.0000 </r>
       <r>    0.7280    0.0000 </r>
      </set>
      <set comment="kpoint 3">
       <r>  -12.2121    1.0000 </r>
       <r>  -11.4112    1.0000 </r>
       <r>  -10.7102    1.0000 </r>
       <r>  -10.1164    1.0000 </r>
       <r>   -8.7099    1.0000 </r>
       <r>   -8.6585    1.0000 </r>
       <r>   -7.3081    1.0000 </r>
       <r>   -6.6491    1.0000 </r>
       <r>   -6.1769    1.0000 </r>
       <r>   -5.0895    1.0000 </r>
       <r>   -5.0647    1.0000 </r>
       <r>   -4.9719    1.0000 </r>
       <r>   -4.6865    1.0000 </r>
       <r>   -4.5512    1.0000 </r>
       <r>   -3.6641    1.0000 </r>
       <r>   -3.4577    1.0000 </r>
       <r>   -2.2777    1.0000 </r>
       <r>   -2.0368    1.0000 </r>
       <r>   -1.9690    1.0000 </r>
       <r>   -1.7773    0.9013 </r>
       <r>   -1.6961    0.5559 </r>
       <r>   -1.0197    0.0000 </r>
       <r>   -0.8238    0.0000 </r>
       <r>    0.1054    0.0000 </r>
       <r>    1.3138    0.0000 </r>
       <r>    1.7994    0.0000 </r>
      </set>
      <set comment="kpoint 4">
       <r>  -12.5441    1.0000 </r>
       <r>  -10.9890    1.0000 </r>
       <r>  -10.4698    1.0000 </r>
       <r>  -10.1121    1.0000 </r>
       <r>   -8.8125    1.0000 </r>
       <r>   -8.4852    1.0000 </r>
       <r>   -7.9347    1.0000 </r>
       <r>   -7.0550    1.0000 </r>
       <r>   -6.4453    1.0000 </r>
       <r>   -4.9978    1.0000 </r>
       <r>   -4.9808    1.0000 </r>
       <r>   -4.6355    1.0000 </r>
       <r>   -4.1923    1.0000 </r>
       <r>   -4.1632    1.0000 </r>
       <r>   -3.5758    1.0000 </r>
       <r>   -2.3998    1.0000 </r>
       <r>   -2.3728    1.0000 </r>
       <r>   -2.2789    1.0000 </r>
       <r>   -2.1476    1.0000 </r>
       <r>   -2.1054    1.0000 </r>
       <r>   -1.7359    0.7590 </r>
       <r>   -1.1941    0.0000 </r>
       <r>   -0.3859    0.0000 </r>
       <r>    0.3475    0.0000 </r>
       <r>    0.6231    0.0000 </r>
       <r>    1.0943    0.0000 </r>
      </set>
      <set comment="kpoint 5">
       <r>  -12.0646    1.0000 </r>
       <r>  -11.3053    1.0000 </r>
       <r>  -10.6710    1.0000 </r>
       <r>  -10.3379    1.0000 </r>
       <r>   -8.8026    1.0000 </r>
       <r>   -8.7658    1.0000 </r>
       <r>   -7.4393    1.0000 </r>
       <r>   -6.9896    1.0000 </r>
       <r>   -6.4850    1.0000 </r>
       <r>   -5.8254    1.0000 </r>
       <r>   -4.5717    1.0000 </r>
       <r>   -4.4554    1.0000 </r>
       <r>   -4.4424    1.0000 </r>
       <r>   -3.8056    1.0000 </r>
       <r>   -3.6892    1.0000 </r>
       <r>   -2.8998    1.0000 </r>
       <r>   -2.5919    1.0000 </r>
       <r>   -2.5703    1.0000 </r>
       <r>   -1.8691    0.9952 </r>
       <r>   -1.6461    0.2855 </r>
       <r>   -1.5457    0.0234 </r>
       <r>   -0.9704    0.0000 </r>
       <r>   -0.4368    0.0000 </r>
       <r>    0.3550    0.0000 </r>
       <r>    1.2410    0.0000 </r>
       <r>    1.4516    0.0000 </r>
      </set>
      <set comment="kpoint 6">
       <r>  -11.6464    1.0000 </r>
       <r>  -11.1578    1.0000 </r>
       <r>  -10.8025    1.0000 </r>
       <r>  -10.6852    1.0000 </r>
       <r>   -8.9315    1.0000 </r>
       <r>   -8.8444    1.0000 </r>
       <r>   -7.6856    1.0000 </r>
       <r>   -7.4279    1.0000 </r>
       <r>   -6.5758    1.0000 </r>
       <r>   -6.4507    1.0000 </r>
       <r>   -4.4166    1.0000 </r>
       <r>   -4.3710    1.0000 </r>
       <r>   -3.3295    1.0000 </r>
       <r>   -3.3027    1.0000 </r>
       <r>   -3.0250    1.0000 </r>
       <r>   -2.9790    1.0000 </r>
       <r>   -2.6513    1.0000 </r>
       <r>   -2.3896    1.0000 </r>
       <r>   -1.8404    0.9854 </r>
       <r>   -1.5355    0.0165 </r>
       <r>   -1.4531    0.0005 </r>
       <r>   -1.4201    0.0001 </r>
       <r>    0.3826    0.0000 </r>
       <r>    0.7949    0.0000 </r>
       <r>    0.8610    0.0000 </r>
       <r>    1.1587    0.0000 </r>
      </set>
     </set>
    </set>
   </array>
  </eigenvalues>
  <separator name="orbital magnetization" >
   <v name="MAGDIPOLOUT">      0.00000000      0.00000000      0.00000000</v>
  </separator>
  <dos>
   <i name="efermi">     -1.68617429 </i>
   <total>
    <array>
     <dimension dim="1">gridpoints</dimension>
     <dimension dim="2">spin</dimension>
     <field>energy</field>
     <field>total</field>
     <field>integrated</field>
     <set>
      <set comment="spin 1">
       <r>   -17.0000     0.0000     0.0000 </r>
       <r>   -16.9900     0.0000     0.0000 </r>
       <r>   -16.9800     0.0000     0.0000 </r>
       <r>   -16.9700     0.0000     0.0000 </r>
       <r>   -16.9600     0.0000     0.0000 </r>
       <r>   -16.9500     0.0000     0.0000 </r>
       <r>   -16.9400     0.0000     0.0000 </r>
       <r>   -16.9300     0.0000     0.0000 </r>
       <r>   -16.9200     0.0000     0.0000 </r>
       <r>   -16.9100     0.0000     0.0000 </r>
       <r>   -16.9000     0.0000     0.0000 </r>
       <r>   -16.8900     0.0000     0.0000 </r>
       <r>   -16.8800     0.0000     0.0000 </r>
       <r>   -16.8700     0.0000     0.0000 </r>
       <r>   -16.8600     0.0000     0.0000 </r>
       <r>   -16.8500     0.0000     0.0000 </r>
       <r>   -16.8400     0.0000     0.0000 </r>
       <r>   -16.8300     0.0000     0.0000 </r>
       <r>   -16.8200     0.0000     0.0000 </r>
       <r>   -16.8100     0.0000     0.0000 </r>
       <r>   -16.8000     0.0000     0.0000 </r>
       <r>   -16.7900     0.0000     0.0000 </r>
       <r>   -16.7800     0.0000     0.0000 </r>
       <r>   -16.7700     0.0000     0.0000 </r>
       <r>   -16.7600     0.0000     0.0000 </r>
       <r>   -16.7500     0.0000     0.0000 </r>
       <r>   -16.7400     0.0000     0.0000 </r>
       <r>   -16.7300     0.0000     0.0000 </r>
       <r>   -16.7200     0.0000     0.0000 </r>
       <r>   -16.7100     0.0000     0.0000 </r>
       <r>   -16.7000     0.0000     0.0000 </r>
       <r>   -16.6900     0.0000     0.0000 </r>
       <r>   -16.6800     0.0000     0.0000 </r>
       <r>   -16.6700     0.0000     0.0000 </r>
       <r>   -16.6600     0.0000     0.0000 </r>
       <r>   -16.6500     0.0000     0.0000 </r>
       <r>   -16.6400     0.0000     0.0000 </r>
       <r>   -16.6300     0.0000     0.0000 </r>
       <r>   -16.6200     0.0000     0.0000 </r>
       <r>   -16.6100     0.0000     0.0000 </r>
       <r>   -16.6000     0.0000     0.0000 </r>
       <r>   -16.5900     0.0000     0.0000 </r>
       <r>   -16.5800     0.0000     0.0000 </r>
       <r>   -16.5700     0.0000     0.0000 </r>
       <r>   -16.5600     0.0000     0.0000 </r>
       <r>   -16.5500     0.0000     0.0000 </r>
       <r>   -16.5400     0.0000     0.0000 </r>
       <r>   -16.5300     0.0000     0.0000 </r>
       <r>   -16.5200     0.0000     0.0000 </r>
       <r>   -16.5100     0.0000     0.0000 </r>
       <r>   -16.5000     0.0000     0.0000 </r>
       <r>   -16.4900     0.0000     0.0000 </r>
       <r>   -16.4800     0.0000     0.0000 </r>
       <r>   -16.4700     0.0000     0.0000 </r>
       <r>   -16.4600     0.0000     0.0000 </r>
       <r>   -16.4500     0.0000     0.0000 </r>
       <r>   -16.4400     0.0000     0.0000 </r>
       <r>   -16.4300     0.0000     0.0000 </r>
       <r>   -16.4200     0.0000     0.0000 </r>
       <r>   -16.4100     0.0000     0.0000 </r>
       <r>   -16.4000     0.0000     0.0000 </r>
       <r>   -16.3900     0.0000     0.0000 </r>
       <r>   -16.3800     0.0000     0.0000 </r>
       <r>   -16.3700     0.0000     0.0000 </r>
       <r>   -16.3600     0.0000     0.0000 </r>
       <r>   -16.3500     0.0000     0.0000 </r>
       <r>   -16.3400     0.0000     0.0000 </r>
       <r>   -16.3300     0.0000     0.0000 </r>
       <r>   -16.3200     0.0000     0.0000 </r>
       <r>   -16.3100     0.0000     0.0000 </r>
       <r>   -16.3000     0.0000     0.0000 </r>
       <r>   -16.2900     0.0000     0.0000 </r>
       <r>   -16.2800     0.0000     0.0000 </r>
       <r>   -16.2700     0.0000     0.0000 </r>
       <r>   -16.2600     0.0000     0.0000 </r>
       <r>   -16.2500     0.0000     0.0000 </r>
       <r>   -16.2400     0.0000     0.0000 </r>
       <r>   -16.2300     0.0000     0.0000 </r>
       <r>   -16.2200     0.0000     0.0000 </r>
       <r>   -16.2100     0.0000     0.0000 </r>
       <r>   -16.2000     0.0000     0.0000 </r>
       <r>   -16.1900     0.0000     0.0000 </r>
       <r>   -16.1800     0.0000     0.0000 </r>
       <r>   -16.1700     0.0000     0.0000 </r>
       <r>   -16.1600     0.0000     0.0000 </r>
       <r>   -16.1500     0.0000     0.0000 </r>
       <r>   -16.1400     0.0000     0.0000 </r>
       <r>   -16.1300     0.0000     0.0000 </r>
       <r>   -16.1200     0.0000     0.0000 </r>
       <r>   -16.1100     0.0000     0.0000 </r>
       <r>   -16.1000     0.0000     0.0000 </r>
       <r>   -16.0900     0.0000     0.0000 </r>
       <r>   -16.0800     0.0000     0.0000 </r>
       <r>   -16.0700     0.0000     0.0000 </r>
       <r>   -16.0600     0.0000     0.0000 </r>
       <r>   -16.0500     0.0000     0.0000 </r>
       <r>   -16.0400     0.0000     0.0000 </r>
       <r>   -16.0300     0.0000     0.0000 </r>
       <r>   -16.0200     0.0000     0.0000 </r>
       <r>   -16.0100     0.0000     0.0000 </r>
       <r>   -16.0000     0.0000     0.0000 </r>
       <r>   -15.9900     0.0000     0.0000 </r>
       <r>   -15.9800     0.0000     0.0000 </r>
       <r>   -15.9700     0.0000     0.0000 </r>
       <r>   -15.9600     0.0000     0.0000 </r>
       <r>   -15.9500     0.0000     0.0000 </r>
       <r>   -15.9400     0.0000     0.0000 </r>
       <r>   -15.9300     0.0000     0.0000 </r>
       <r>   -15.9200     0.0000     0.0000 </r>
       <r>   -15.9100     0.0000     0.0000 </r>
       <r>   -15.9000     0.0000     0.0000 </r>
       <r>   -15.8900     0.0000     0.0000 </r>
       <r>   -15.8800     0.0000     0.0000 </r>
       <r>   -15.8700     0.0000     0.0000 </r>
       <r>   -15.8600     0.0000     0.0000 </r>
       <r>   -15.8500     0.0000     0.0000 </r>
       <r>   -15.8400     0.0000     0.0000 </r>
       <r>   -15.8300     0.0000     0.0000 </r>
       <r>   -15.8200     0.0000     0.0000 </r>
       <r>   -15.8100     0.0000     0.0000 </r>
       <r>   -15.8000     0.0000     0.0000 </r>
       <r>   -15.7900     0.0000     0.0000 </r>
       <r>   -15.7800     0.0000     0.0000 </r>
       <r>   -15.7700     0.0000     0.0000 </r>
       <r>   -15.7600     0.0000     0.0000 </r>
       <r>   -15.7500     0.0000     0.0000 </r>
       <r>   -15.7400     0.0000     0.0000 </r>
       <r>   -15.7300     0.0000     0.0000 </r>
       <r>   -15.7200     0.0000     0.0000 </r>
       <r>   -15.7100     0.0000     0.0000 </r>
       <r>   -15.7000     0.0000     0.0000 </r>
       <r>   -15.6900     0.0000     0.0000 </r>
       <r>   -15.6800     0.0000     0.0000 </r>
       <r>   -15.6700     0.0000     0.0000 </r>
       <r>   -15.6600     0.0000     0.0000 </r>
       <r>   -15.6500     0.0000     0.0000 </r>
       <r>   -15.6400     0.0000     0.0000 </r>
       <r>   -15.6300     0.0000     0.0000 </r>
       <r>   -15.6200     0.0000     0.0000 </r>
       <r>   -15.6100     0.0000     0.0000 </r>
       <r>   -15.6000     0.0000     0.0000 </r>
       <r>   -15.5900     0.0000     0.0000 </r>
       <r>   -15.5800     0.0000     0.0000 </r>
       <r>   -15.5700     0.0000     0.0000 </r>
       <r>   -15.5600     0.0000     0.0000 </r>
       <r>   -15.5500     0.0000     0.0000 </r>
       <r>   -15.5400     0.0000     0.0000 </r>
       <r>   -15.5300     0.0000     0.0000 </r>
       <r>   -15.5200     0.0000     0.0000 </r>
       <r>   -15.5100     0.0000     0.0000 </r>
       <r>   -15.5000     0.0000     0.0000 </r>
       <r>   -15.4900     0.0000     0.0000 </r>
       <r>   -15.4800     0.0000     0.0000 </r>
       <r>   -15.4700     0.0000     0.0000 </r>
       <r>   -15.4600     0.0000     0.0000 </r>
       <r>   -15.4500     0.0000     0.0000 </r>
       <r>   -15.4400     0.0000     0.0000 </r>
       <r>   -15.4300     0.0000     0.0000 </r>
       <r>   -15.4200     0.0000     0.0000 </r>
       <r>   -15.4100     0.0000     0.0000 </r>
       <r>   -15.4000     0.0000     0.0000 </r>
       <r>   -15.3900     0.0000     0.0000 </r>
       <r>   -15.3800     0.0000     0.0000 </r>
       <r>   -15.3700     0.0000     0.0000 </r>
       <r>   -15.3600     0.0000     0.0000 </r>
       <r>   -15.3500     0.0000     0.0000 </r>
       <r>   -15.3400     0.0000     0.0000 </r>
       <r>   -15.3300     0.0000     0.0000 </r>
       <r>   -15.3200     0.0000     0.0000 </r>
       <r>   -15.3100     0.0000     0.0000 </r>
       <r>   -15.3000     0.0000     0.0000 </r>
       <r>   -15.2900     0.0000     0.0000 </r>
       <r>   -15.2800     0.0000     0.0000 </r>
       <r>   -15.2700     0.0000     0.0000 </r>
       <r>   -15.2600     0.0000     0.0000 </r>
       <r>   -15.2500     0.0000     0.0000 </r>
       <r>   -15.2400     0.0000     0.0000 </r>
       <r>   -15.2300     0.0000     0.0000 </r>
       <r>   -15.2200     0.0000     0.0000 </r>
       <r>   -15.2100     0.0000     0.0000 </r>
       <r>   -15.2000     0.0000     0.0000 </r>
       <r>   -15.1900     0.0000     0.0000 </r>
       <r>   -15.1800     0.0000     0.0000 </r>
       <r>   -15.1700     0.0000     0.0000 </r>
       <r>   -15.1600     0.0000     0.0000 </r>
       <r>   -15.1500     0.0000     0.0000 </r>
       <r>   -15.1400     0.0000     0.0000 </r>
       <r>   -15.1300     0.0000     0.0000 </r>
       <r>   -15.1200     0.0000     0.0000 </r>
       <r>   -15.1100     0.0000     0.0000 </r>
       <r>   -15.1000     0.0000     0.0000 </r>
       <r>   -15.0900     0.0000     0.0000 </r>
       <r>   -15.0800     0.0000     0.0000 </r>
       <r>   -15.0700     0.0000     0.0000 </r>
       <r>   -15.0600     0.0000     0.0000 </r>
       <r>   -15.0500     0.0000     0.0000 </r>
       <r>   -15.0400     0.0000     0.0000 </r>
       <r>   -15.0300     0.0000     0.0000 </r>
       <r>   -15.0200     0.0000     0.0000 </r>
       <r>   -15.0100     0.0000     0.0000 </r>
       <r>   -15.0000     0.0000     0.0000 </r>
       <r>   -14.9900     0.0000     0.0000 </r>
       <r>   -14.9800     0.0000     0.0000 </r>
       <r>   -14.9700     0.0000     0.0000 </r>
       <r>   -14.9600     0.0000     0.0000 </r>
       <r>   -14.9500     0.0000     0.0000 </r>
       <r>   -14.9400     0.0000     0.0000 </r>
       <r>   -14.9300     0.0000     0.0000 </r>
       <r>   -14.9200     0.0000     0.0000 </r>
       <r>   -14.9100     0.0000     0.0000 </r>
       <r>   -14.9000     0.0000     0.0000 </r>
       <r>   -14.8900     0.0000     0.0000 </r>
       <r>   -14.8800     0.0000     0.0000 </r>
       <r>   -14.8700     0.0000     0.0000 </r>
       <r>   -14.8600     0.0000     0.0000 </r>
       <r>   -14.8500     0.0000     0.0000 </r>
       <r>   -14.8400     0.0000     0.0000 </r>
       <r>   -14.8300     0.0000     0.0000 </r>
       <r>   -14.8200     0.0000     0.0000 </r>
       <r>   -14.8100     0.0000     0.0000 </r>
       <r>   -14.8000     0.0000     0.0000 </r>
       <r>   -14.7900     0.0000     0.0000 </r>
       <r>   -14.7800     0.0000     0.0000 </r>
       <r>   -14.7700     0.0000     0.0000 </r>
       <r>   -14.7600     0.0000     0.0000 </r>
       <r>   -14.7500     0.0000     0.0000 </r>
       <r>   -14.7400     0.0000     0.0000 </r>
       <r>   -14.7300     0.0000     0.0000 </r>
       <r>   -14.7200     0.0000     0.0000 </r>
       <r>   -14.7100     0.0000     0.0000 </r>
       <r>   -14.7000     0.0000     0.0000 </r>
       <r>   -14.6900     0.0000     0.0000 </r>
       <r>   -14.6800     0.0000     0.0000 </r>
       <r>   -14.6700     0.0000     0.0000 </r>
       <r>   -14.6600     0.0000     0.0000 </r>
       <r>   -14.6500     0.0000     0.0000 </r>
       <r>   -14.6400     0.0000     0.0000 </r>
       <r>   -14.6300     0.0000     0.0000 </r>
       <r>   -14.6200     0.0000     0.0000 </r>
       <r>   -14.6100     0.0000     0.0000 </r>
       <r>   -14.6000     0.0000     0.0000 </r>
       <r>   -14.5900     0.0000     0.0000 </r>
       <r>   -14.5800     0.0000     0.0000 </r>
       <r>   -14.5700     0.0000     0.0000 </r>
       <r>   -14.5600     0.0000     0.0000 </r>
       <r>   -14.5500     0.0000     0.0000 </r>
       <r>   -14.5400     0.0000     0.0000 </r>
       <r>   -14.5300     0.0000     0.0000 </r>
       <r>   -14.5200     0.0000     0.0000 </r>
       <r>   -14.5100     0.0000     0.0000 </r>
       <r>   -14.5000     0.0000     0.0000 </r>
       <r>   -14.4900     0.0000     0.0000 </r>
       <r>   -14.4800     0.0000     0.0000 </r>
       <r>   -14.4700     0.0000     0.0000 </r>
       <r>   -14.4600     0.0000     0.0000 </r>
       <r>   -14.4500     0.0000     0.0000 </r>
       <r>   -14.4400     0.0000     0.0000 </r>
       <r>   -14.4300     0.0000     0.0000 </r>
       <r>   -14.4200     0.0000     0.0000 </r>
       <r>   -14.4100     0.0000     0.0000 </r>
       <r>   -14.4000     0.0000     0.0000 </r>
       <r>   -14.3900     0.0000     0.0000 </r>
       <r>   -14.3800     0.0000     0.0000 </r>
       <r>   -14.3700     0.0000     0.0000 </r>
       <r>   -14.3600     0.0000     0.0000 </r>
       <r>   -14.3500     0.0000     0.0000 </r>
       <r>   -14.3400     0.0000     0.0000 </r>
       <r>   -14.3300     0.0000     0.0000 </r>
       <r>   -14.3200     0.0000     0.0000 </r>
       <r>   -14.3100     0.0000     0.0000 </r>
       <r>   -14.3000     0.0000     0.0000 </r>
       <r>   -14.2900     0.0000     0.0000 </r>
       <r>   -14.2800     0.0000     0.0000 </r>
       <r>   -14.2700     0.0000     0.0000 </r>
       <r>   -14.2600     0.0000     0.0000 </r>
       <r>   -14.2500     0.0000     0.0000 </r>
       <r>   -14.2400     0.0000     0.0000 </r>
       <r>   -14.2300     0.0000     0.0000 </r>
       <r>   -14.2200     0.0000     0.0000 </r>
       <r>   -14.2100     0.0000     0.0000 </r>
       <r>   -14.2000     0.0000     0.0000 </r>
       <r>   -14.1900     0.0000     0.0000 </r>
       <r>   -14.1800     0.0000     0.0000 </r>
       <r>   -14.1700     0.0000     0.0000 </r>
       <r>   -14.1600     0.0000     0.0000 </r>
       <r>   -14.1500     0.0000     0.0000 </r>
       <r>   -14.1400     0.0000     0.0000 </r>
       <r>   -14.1300     0.0000     0.0000 </r>
       <r>   -14.1200     0.0000     0.0000 </r>
       <r>   -14.1100     0.0000     0.0000 </r>
       <r>   -14.1000     0.0000     0.0000 </r>
       <r>   -14.0900     0.0000     0.0000 </r>
       <r>   -14.0800     0.0000     0.0000 </r>
       <r>   -14.0700     0.0000     0.0000 </r>
       <r>   -14.0600     0.0000     0.0000 </r>
       <r>   -14.0500     0.0000     0.0000 </r>
       <r>   -14.0400     0.0000     0.0000 </r>
       <r>   -14.0300     0.0000     0.0000 </r>
       <r>   -14.0200     0.0000     0.0000 </r>
       <r>   -14.0100     0.0000     0.0000 </r>
       <r>   -14.0000     0.0000     0.0000 </r>
       <r>   -13.9900     0.0000     0.0000 </r>
       <r>   -13.9800     0.0000     0.0000 </r>
       <r>   -13.9700     0.0000     0.0000 </r>
       <r>   -13.9600     0.0000     0.0000 </r>
       <r>   -13.9500     0.0000     0.0000 </r>
       <r>   -13.9400     0.0000     0.0000 </r>
       <r>   -13.9300     0.0000     0.0000 </r>
       <r>   -13.9200     0.0000     0.0000 </r>
       <r>   -13.9100     0.0000     0.0000 </r>
       <r>   -13.9000     0.0000     0.0000 </r>
       <r>   -13.8900     0.0000     0.0000 </r>
       <r>   -13.8800     0.0000     0.0000 </r>
       <r>   -13.8700     0.0000     0.0000 </r>
       <r>   -13.8600     0.0000     0.0000 </r>
       <r>   -13.8500     0.0000     0.0000 </r>
       <r>   -13.8400     0.0000     0.0000 </r>
       <r>   -13.8300     0.0000     0.0000 </r>
       <r>   -13.8200     0.0000     0.0000 </r>
       <r>   -13.8100     0.0000     0.0000 </r>
       <r>   -13.8000     0.0000     0.0000 </r>
       <r>   -13.7900     0.0000     0.0000 </r>
       <r>   -13.7800     0.0000     0.0000 </r>
       <r>   -13.7700     0.0000     0.0000 </r>
       <r>   -13.7600     0.0000     0.0000 </r>
       <r>   -13.7500     0.0000     0.0000 </r>
       <r>   -13.7400     0.0000     0.0000 </r>
       <r>   -13.7300     0.0000     0.0000 </r>
       <r>   -13.7200     0.0000     0.0000 </r>
       <r>   -13.7100     0.0000     0.0000 </r>
       <r>   -13.7000     0.0000     0.0000 </r>
       <r>   -13.6900     0.0000     0.0000 </r>
       <r>   -13.6800     0.0000     0.0000 </r>
       <r>   -13.6700     0.0000     0.0000 </r>
       <r>   -13.6600     0.0000     0.0000 </r>
       <r>   -13.6500     0.0000     0.0000 </r>
       <r>   -13.6400     0.0000     0.0000 </r>
       <r>   -13.6300     0.0000     0.0000 </r>
       <r>   -13.6200     0.0000     0.0000 </r>
       <r>   -13.6100     0.0000     0.0000 </r>
       <r>   -13.6000     0.0000     0.0000 </r>
       <r>   -13.5900     0.0000     0.0000 </r>
       <r>   -13.5800     0.0000     0.0000 </r>
       <r>   -13.5700     0.0000     0.0000 </r>
       <r>   -13.5600     0.0000     0.0000 </r>
       <r>   -13.5500     0.0000     0.0000 </r>
       <r>   -13.5400     0.0000     0.0000 </r>
       <r>   -13.5300     0.0000     0.0000 </r>
       <r>   -13.5200     0.0000     0.0000 </r>
       <r>   -13.5100     0.0000     0.0000 </r>
       <r>   -13.5000     0.0000     0.0000 </r>
       <r>   -13.4900     0.0000     0.0000 </r>
       <r>   -13.4800     0.0000     0.0000 </r>
       <r>   -13.4700     0.0000     0.0000 </r>
       <r>   -13.4600     0.0000     0.0000 </r>
       <r>   -13.4500     0.0000     0.0000 </r>
       <r>   -13.4400     0.0000     0.0000 </r>
       <r>   -13.4300     0.0000     0.0000 </r>
       <r>   -13.4200     0.0000     0.0000 </r>
       <r>   -13.4100     0.0000     0.0000 </r>
       <r>   -13.4000     0.0000     0.0000 </r>
       <r>   -13.3900     0.0000     0.0000 </r>
       <r>   -13.3800     0.0000     0.0000 </r>
       <r>   -13.3700     0.0000     0.0000 </r>
       <r>   -13.3600     0.0000     0.0000 </r>
       <r>   -13.3500     0.0000     0.0000 </r>
       <r>   -13.3400     0.0000     0.0000 </r>
       <r>   -13.3300     0.0000     0.0000 </r>
       <r>   -13.3200     0.0000     0.0000 </r>
       <r>   -13.3100     0.0000     0.0000 </r>
       <r>   -13.3000     0.0000     0.0000 </r>
       <r>   -13.2900     0.0000     0.0000 </r>
       <r>   -13.2800     0.0000     0.0000 </r>
       <r>   -13.2700     0.0000     0.0000 </r>
       <r>   -13.2600     0.0000     0.0000 </r>
       <r>   -13.2500     0.0000     0.0000 </r>
       <r>   -13.2400     0.0000     0.0000 </r>
       <r>   -13.2300     0.0000     0.0000 </r>
       <r>   -13.2200     0.0000     0.0000 </r>
       <r>   -13.2100     0.0000     0.0000 </r>
       <r>   -13.2000     0.0000     0.0000 </r>
       <r>   -13.1900     0.0000     0.0000 </r>
       <r>   -13.1800     0.0000     0.0000 </r>
       <r>   -13.1700     0.0001     0.0000 </r>
       <r>   -13.1600     0.0001     0.0000 </r>
       <r>   -13.1500     0.0002     0.0000 </r>
       <r>   -13.1400     0.0003     0.0000 </r>
       <r>   -13.1300     0.0005     0.0000 </r>
       <r>   -13.1200     0.0008     0.0000 </r>
       <r>   -13.1100     0.0014     0.0000 </r>
       <r>   -13.1000     0.0022     0.0001 </r>
       <r>   -13.0900     0.0035     0.0001 </r>
       <r>   -13.0800     0.0053     0.0001 </r>
       <r>   -13.0700     0.0080     0.0002 </r>
       <r>   -13.0600     0.0119     0.0003 </r>
       <r>   -13.0500     0.0172     0.0005 </r>
       <r>   -13.0400     0.0244     0.0008 </r>
       <r>   -13.0300     0.0340     0.0011 </r>
       <r>   -13.0200     0.0465     0.0016 </r>
       <r>   -13.0100     0.0622     0.0022 </r>
       <r>   -13.0000     0.0817     0.0030 </r>
       <r>   -12.9900     0.1052     0.0041 </r>
       <r>   -12.9800     0.1328     0.0054 </r>
       <r>   -12.9700     0.1645     0.0070 </r>
       <r>   -12.9600     0.1999     0.0090 </r>
       <r>   -12.9500     0.2384     0.0114 </r>
       <r>   -12.9400     0.2793     0.0142 </r>
       <r>   -12.9300     0.3214     0.0174 </r>
       <r>   -12.9200     0.3638     0.0211 </r>
       <r>   -12.9100     0.4056     0.0251 </r>
       <r>   -12.9000     0.4460     0.0296 </r>
       <r>   -12.8900     0.4847     0.0344 </r>
       <r>   -12.8800     0.5221     0.0396 </r>
       <r>   -12.8700     0.5589     0.0452 </r>
       <r>   -12.8600     0.5968     0.0512 </r>
       <r>   -12.8500     0.6378     0.0576 </r>
       <r>   -12.8400     0.6845     0.0644 </r>
       <r>   -12.8300     0.7394     0.0718 </r>
       <r>   -12.8200     0.8050     0.0799 </r>
       <r>   -12.8100     0.8830     0.0887 </r>
       <r>   -12.8000     0.9742     0.0984 </r>
       <r>   -12.7900     1.0782     0.1092 </r>
       <r>   -12.7800     1.1931     0.1212 </r>
       <r>   -12.7700     1.3157     0.1343 </r>
       <r>   -12.7600     1.4413     0.1487 </r>
       <r>   -12.7500     1.5646     0.1644 </r>
       <r>   -12.7400     1.6798     0.1812 </r>
       <r>   -12.7300     1.7814     0.1990 </r>
       <r>   -12.7200     1.8646     0.2176 </r>
       <r>   -12.7100     1.9263     0.2369 </r>
       <r>   -12.7000     1.9653     0.2565 </r>
       <r>   -12.6900     1.9821     0.2764 </r>
       <r>   -12.6800     1.9798     0.2962 </r>
       <r>   -12.6700     1.9629     0.3158 </r>
       <r>   -12.6600     1.9372     0.3352 </r>
       <r>   -12.6500     1.9088     0.3543 </r>
       <r>   -12.6400     1.8837     0.3731 </r>
       <r>   -12.6300     1.8667     0.3918 </r>
       <r>   -12.6200     1.8608     0.4104 </r>
       <r>   -12.6100     1.8671     0.4290 </r>
       <r>   -12.6000     1.8841     0.4479 </r>
       <r>   -12.5900     1.9083     0.4670 </r>
       <r>   -12.5800     1.9345     0.4863 </r>
       <r>   -12.5700     1.9565     0.5059 </r>
       <r>   -12.5600     1.9677     0.5255 </r>
       <r>   -12.5500     1.9621     0.5452 </r>
       <r>   -12.5400     1.9349     0.5645 </r>
       <r>   -12.5300     1.8830     0.5833 </r>
       <r>   -12.5200     1.8054     0.6014 </r>
       <r>   -12.5100     1.7031     0.6184 </r>
       <r>   -12.5000     1.5794     0.6342 </r>
       <r>   -12.4900     1.4387     0.6486 </r>
       <r>   -12.4800     1.2869     0.6615 </r>
       <r>   -12.4700     1.1299     0.6728 </r>
       <r>   -12.4600     0.9740     0.6825 </r>
       <r>   -12.4500     0.8246     0.6908 </r>
       <r>   -12.4400     0.6865     0.6976 </r>
       <r>   -12.4300     0.5634     0.7033 </r>
       <r>   -12.4200     0.4578     0.7078 </r>
       <r>   -12.4100     0.3716     0.7116 </r>
       <r>   -12.4000     0.3056     0.7146 </r>
       <r>   -12.3900     0.2602     0.7172 </r>
       <r>   -12.3800     0.2356     0.7196 </r>
       <r>   -12.3700     0.2318     0.7219 </r>
       <r>   -12.3600     0.2488     0.7244 </r>
       <r>   -12.3500     0.2867     0.7272 </r>
       <r>   -12.3400     0.3455     0.7307 </r>
       <r>   -12.3300     0.4251     0.7350 </r>
       <r>   -12.3200     0.5249     0.7402 </r>
       <r>   -12.3100     0.6438     0.7466 </r>
       <r>   -12.3000     0.7799     0.7544 </r>
       <r>   -12.2900     0.9306     0.7637 </r>
       <r>   -12.2800     1.0923     0.7747 </r>
       <r>   -12.2700     1.2606     0.7873 </r>
       <r>   -12.2600     1.4309     0.8016 </r>
       <r>   -12.2500     1.5987     0.8176 </r>
       <r>   -12.2400     1.7596     0.8352 </r>
       <r>   -12.2300     1.9108     0.8543 </r>
       <r>   -12.2200     2.0506     0.8748 </r>
       <r>   -12.2100     2.1791     0.8966 </r>
       <r>   -12.2000     2.2983     0.9196 </r>
       <r>   -12.1900     2.4117     0.9437 </r>
       <r>   -12.1800     2.5238     0.9689 </r>
       <r>   -12.1700     2.6393     0.9953 </r>
       <r>   -12.1600     2.7627     1.0229 </r>
       <r>   -12.1500     2.8964     1.0519 </r>
       <r>   -12.1400     3.0411     1.0823 </r>
       <r>   -12.1300     3.1942     1.1142 </r>
       <r>   -12.1200     3.3504     1.1477 </r>
       <r>   -12.1100     3.5016     1.1828 </r>
       <r>   -12.1000     3.6377     1.2191 </r>
       <r>   -12.0900     3.7474     1.2566 </r>
       <r>   -12.0800     3.8196     1.2948 </r>
       <r>   -12.0700     3.8446     1.3333 </r>
       <r>   -12.0600     3.8155     1.3714 </r>
       <r>   -12.0500     3.7284     1.4087 </r>
       <r>   -12.0400     3.5836     1.4445 </r>
       <r>   -12.0300     3.3851     1.4784 </r>
       <r>   -12.0200     3.1407     1.5098 </r>
       <r>   -12.0100     2.8606     1.5384 </r>
       <r>   -12.0000     2.5568     1.5640 </r>
       <r>   -11.9900     2.2421     1.5864 </r>
       <r>   -11.9800     1.9284     1.6057 </r>
       <r>   -11.9700     1.6266     1.6219 </r>
       <r>   -11.9600     1.3454     1.6354 </r>
       <r>   -11.9500     1.0911     1.6463 </r>
       <r>   -11.9400     0.8677     1.6550 </r>
       <r>   -11.9300     0.6766     1.6617 </r>
       <r>   -11.9200     0.5175     1.6669 </r>
       <r>   -11.9100     0.3884     1.6708 </r>
       <r>   -11.9000     0.2865     1.6737 </r>
       <r>   -11.8900     0.2084     1.6757 </r>
       <r>   -11.8800     0.1505     1.6773 </r>
       <r>   -11.8700     0.1096     1.6784 </r>
       <r>   -11.8600     0.0830     1.6792 </r>
       <r>   -11.8500     0.0684     1.6799 </r>
       <r>   -11.8400     0.0644     1.6805 </r>
       <r>   -11.8300     0.0704     1.6812 </r>
       <r>   -11.8200     0.0863     1.6821 </r>
       <r>   -11.8100     0.1127     1.6832 </r>
       <r>   -11.8000     0.1506     1.6847 </r>
       <r>   -11.7900     0.2013     1.6867 </r>
       <r>   -11.7800     0.2663     1.6894 </r>
       <r>   -11.7700     0.3466     1.6929 </r>
       <r>   -11.7600     0.4430     1.6973 </r>
       <r>   -11.7500     0.5556     1.7028 </r>
       <r>   -11.7400     0.6831     1.7097 </r>
       <r>   -11.7300     0.8235     1.7179 </r>
       <r>   -11.7200     0.9731     1.7276 </r>
       <r>   -11.7100     1.1273     1.7389 </r>
       <r>   -11.7000     1.2802     1.7517 </r>
       <r>   -11.6900     1.4251     1.7660 </r>
       <r>   -11.6800     1.5552     1.7815 </r>
       <r>   -11.6700     1.6639     1.7982 </r>
       <r>   -11.6600     1.7453     1.8156 </r>
       <r>   -11.6500     1.7953     1.8336 </r>
       <r>   -11.6400     1.8113     1.8517 </r>
       <r>   -11.6300     1.7930     1.8696 </r>
       <r>   -11.6200     1.7425     1.8870 </r>
       <r>   -11.6100     1.6639     1.9037 </r>
       <r>   -11.6000     1.5635     1.9193 </r>
       <r>   -11.5900     1.4488     1.9338 </r>
       <r>   -11.5800     1.3285     1.9471 </r>
       <r>   -11.5700     1.2112     1.9592 </r>
       <r>   -11.5600     1.1058     1.9702 </r>
       <r>   -11.5500     1.0199     1.9804 </r>
       <r>   -11.5400     0.9603     1.9900 </r>
       <r>   -11.5300     0.9321     1.9994 </r>
       <r>   -11.5200     0.9388     2.0088 </r>
       <r>   -11.5100     0.9823     2.0186 </r>
       <r>   -11.5000     1.0625     2.0292 </r>
       <r>   -11.4900     1.1782     2.0410 </r>
       <r>   -11.4800     1.3265     2.0542 </r>
       <r>   -11.4700     1.5039     2.0693 </r>
       <r>   -11.4600     1.7060     2.0863 </r>
       <r>   -11.4500     1.9280     2.1056 </r>
       <r>   -11.4400     2.1655     2.1273 </r>
       <r>   -11.4300     2.4139     2.1514 </r>
       <r>   -11.4200     2.6691     2.1781 </r>
       <r>   -11.4100     2.9273     2.2074 </r>
       <r>   -11.4000     3.1849     2.2392 </r>
       <r>   -11.3900     3.4385     2.2736 </r>
       <r>   -11.3800     3.6840     2.3105 </r>
       <r>   -11.3700     3.9173     2.3496 </r>
       <r>   -11.3600     4.1333     2.3910 </r>
       <r>   -11.3500     4.3266     2.4342 </r>
       <r>   -11.3400     4.4913     2.4791 </r>
       <r>   -11.3300     4.6221     2.5254 </r>
       <r>   -11.3200     4.7142     2.5725 </r>
       <r>   -11.3100     4.7647     2.6202 </r>
       <r>   -11.3000     4.7727     2.6679 </r>
       <r>   -11.2900     4.7402     2.7153 </r>
       <r>   -11.2800     4.6719     2.7620 </r>
       <r>   -11.2700     4.5751     2.8078 </r>
       <r>   -11.2600     4.4594     2.8523 </r>
       <r>   -11.2500     4.3353     2.8957 </r>
       <r>   -11.2400     4.2138     2.9378 </r>
       <r>   -11.2300     4.1045     2.9789 </r>
       <r>   -11.2200     4.0151     3.0190 </r>
       <r>   -11.2100     3.9505     3.0585 </r>
       <r>   -11.2000     3.9122     3.0977 </r>
       <r>   -11.1900     3.8981     3.1366 </r>
       <r>   -11.1800     3.9034     3.1757 </r>
       <r>   -11.1700     3.9208     3.2149 </r>
       <r>   -11.1600     3.9419     3.2543 </r>
       <r>   -11.1500     3.9579     3.2939 </r>
       <r>   -11.1400     3.9609     3.3335 </r>
       <r>   -11.1300     3.9449     3.3729 </r>
       <r>   -11.1200     3.9060     3.4120 </r>
       <r>   -11.1100     3.8432     3.4504 </r>
       <r>   -11.1000     3.7579     3.4880 </r>
       <r>   -11.0900     3.6537     3.5245 </r>
       <r>   -11.0800     3.5354     3.5599 </r>
       <r>   -11.0700     3.4085     3.5940 </r>
       <r>   -11.0600     3.2784     3.6268 </r>
       <r>   -11.0500     3.1494     3.6583 </r>
       <r>   -11.0400     3.0242     3.6885 </r>
       <r>   -11.0300     2.9042     3.7176 </r>
       <r>   -11.0200     2.7888     3.7454 </r>
       <r>   -11.0100     2.6766     3.7722 </r>
       <r>   -11.0000     2.5654     3.7979 </r>
       <r>   -10.9900     2.4529     3.8224 </r>
       <r>   -10.9800     2.3379     3.8458 </r>
       <r>   -10.9700     2.2202     3.8680 </r>
       <r>   -10.9600     2.1013     3.8890 </r>
       <r>   -10.9500     1.9844     3.9088 </r>
       <r>   -10.9400     1.8742     3.9276 </r>
       <r>   -10.9300     1.7766     3.9453 </r>
       <r>   -10.9200     1.6981     3.9623 </r>
       <r>   -10.9100     1.6454     3.9788 </r>
       <r>   -10.9000     1.6243     3.9950 </r>
       <r>   -10.8900     1.6399     4.0114 </r>
       <r>   -10.8800     1.6957     4.0284 </r>
       <r>   -10.8700     1.7940     4.0463 </r>
       <r>   -10.8600     1.9356     4.0657 </r>
       <r>   -10.8500     2.1200     4.0869 </r>
       <r>   -10.8400     2.3463     4.1103 </r>
       <r>   -10.8300     2.6126     4.1365 </r>
       <r>   -10.8200     2.9171     4.1656 </r>
       <r>   -10.8100     3.2575     4.1982 </r>
       <r>   -10.8000     3.6312     4.2345 </r>
       <r>   -10.7900     4.0346     4.2749 </r>
       <r>   -10.7800     4.4629     4.3195 </r>
       <r>   -10.7700     4.9094     4.3686 </r>
       <r>   -10.7600     5.3647     4.4222 </r>
       <r>   -10.7500     5.8168     4.4804 </r>
       <r>   -10.7400     6.2509     4.5429 </r>
       <r>   -10.7300     6.6499     4.6094 </r>
       <r>   -10.7200     6.9954     4.6794 </r>
       <r>   -10.7100     7.2688     4.7520 </r>
       <r>   -10.7000     7.4534     4.8266 </r>
       <r>   -10.6900     7.5355     4.9019 </r>
       <r>   -10.6800     7.5065     4.9770 </r>
       <r>   -10.6700     7.3637     5.0506 </r>
       <r>   -10.6600     7.1109     5.1217 </r>
       <r>   -10.6500     6.7587     5.1893 </r>
       <r>   -10.6400     6.3238     5.2526 </r>
       <r>   -10.6300     5.8274     5.3108 </r>
       <r>   -10.6200     5.2938     5.3638 </r>
       <r>   -10.6100     4.7486     5.4113 </r>
       <r>   -10.6000     4.2164     5.4534 </r>
       <r>   -10.5900     3.7195     5.4906 </r>
       <r>   -10.5800     3.2763     5.5234 </r>
       <r>   -10.5700     2.9004     5.5524 </r>
       <r>   -10.5600     2.6003     5.5784 </r>
       <r>   -10.5500     2.3794     5.6022 </r>
       <r>   -10.5400     2.2369     5.6246 </r>
       <r>   -10.5300     2.1682     5.6462 </r>
       <r>   -10.5200     2.1665     5.6679 </r>
       <r>   -10.5100     2.2233     5.6901 </r>
       <r>   -10.5000     2.3302     5.7134 </r>
       <r>   -10.4900     2.4792     5.7382 </r>
       <r>   -10.4800     2.6636     5.7649 </r>
       <r>   -10.4700     2.8781     5.7937 </r>
       <r>   -10.4600     3.1186     5.8248 </r>
       <r>   -10.4500     3.3819     5.8587 </r>
       <r>   -10.4400     3.6649     5.8953 </r>
       <r>   -10.4300     3.9636     5.9349 </r>
       <r>   -10.4200     4.2723     5.9777 </r>
       <r>   -10.4100     4.5832     6.0235 </r>
       <r>   -10.4000     4.8861     6.0724 </r>
       <r>   -10.3900     5.1682     6.1240 </r>
       <r>   -10.3800     5.4152     6.1782 </r>
       <r>   -10.3700     5.6124     6.2343 </r>
       <r>   -10.3600     5.7457     6.2918 </r>
       <r>   -10.3500     5.8034     6.3498 </r>
       <r>   -10.3400     5.7779     6.4076 </r>
       <r>   -10.3300     5.6663     6.4642 </r>
       <r>   -10.3200     5.4714     6.5190 </r>
       <r>   -10.3100     5.2019     6.5710 </r>
       <r>   -10.3000     4.8716     6.6197 </r>
       <r>   -10.2900     4.4988     6.6647 </r>
       <r>   -10.2800     4.1044     6.7057 </r>
       <r>   -10.2700     3.7107     6.7428 </r>
       <r>   -10.2600     3.3396     6.7762 </r>
       <r>   -10.2500     3.0108     6.8063 </r>
       <r>   -10.2400     2.7404     6.8337 </r>
       <r>   -10.2300     2.5404     6.8592 </r>
       <r>   -10.2200     2.4174     6.8833 </r>
       <r>   -10.2100     2.3726     6.9071 </r>
       <r>   -10.2000     2.4020     6.9311 </r>
       <r>   -10.1900     2.4964     6.9560 </r>
       <r>   -10.1800     2.6426     6.9825 </r>
       <r>   -10.1700     2.8242     7.0107 </r>
       <r>   -10.1600     3.0224     7.0409 </r>
       <r>   -10.1500     3.2181     7.0731 </r>
       <r>   -10.1400     3.3924     7.1070 </r>
       <r>   -10.1300     3.5287     7.1423 </r>
       <r>   -10.1200     3.6135     7.1785 </r>
       <r>   -10.1100     3.6373     7.2148 </r>
       <r>   -10.1000     3.5953     7.2508 </r>
       <r>   -10.0900     3.4876     7.2857 </r>
       <r>   -10.0800     3.3187     7.3188 </r>
       <r>   -10.0700     3.0970     7.3498 </r>
       <r>   -10.0600     2.8339     7.3781 </r>
       <r>   -10.0500     2.5424     7.4036 </r>
       <r>   -10.0400     2.2361     7.4259 </r>
       <r>   -10.0300     1.9280     7.4452 </r>
       <r>   -10.0200     1.6296     7.4615 </r>
       <r>   -10.0100     1.3502     7.4750 </r>
       <r>   -10.0000     1.0967     7.4860 </r>
       <r>    -9.9900     0.8731     7.4947 </r>
       <r>    -9.9800     0.6814     7.5015 </r>
       <r>    -9.9700     0.5213     7.5067 </r>
       <r>    -9.9600     0.3910     7.5106 </r>
       <r>    -9.9500     0.2874     7.5135 </r>
       <r>    -9.9400     0.2071     7.5156 </r>
       <r>    -9.9300     0.1463     7.5171 </r>
       <r>    -9.9200     0.1013     7.5181 </r>
       <r>    -9.9100     0.0688     7.5188 </r>
       <r>    -9.9000     0.0457     7.5192 </r>
       <r>    -9.8900     0.0298     7.5195 </r>
       <r>    -9.8800     0.0191     7.5197 </r>
       <r>    -9.8700     0.0120     7.5198 </r>
       <r>    -9.8600     0.0073     7.5199 </r>
       <r>    -9.8500     0.0044     7.5199 </r>
       <r>    -9.8400     0.0026     7.5200 </r>
       <r>    -9.8300     0.0015     7.5200 </r>
       <r>    -9.8200     0.0009     7.5200 </r>
       <r>    -9.8100     0.0005     7.5200 </r>
       <r>    -9.8000     0.0003     7.5200 </r>
       <r>    -9.7900     0.0002     7.5200 </r>
       <r>    -9.7800     0.0002     7.5200 </r>
       <r>    -9.7700     0.0003     7.5200 </r>
       <r>    -9.7600     0.0005     7.5200 </r>
       <r>    -9.7500     0.0009     7.5200 </r>
       <r>    -9.7400     0.0015     7.5200 </r>
       <r>    -9.7300     0.0025     7.5201 </r>
       <r>    -9.7200     0.0041     7.5201 </r>
       <r>    -9.7100     0.0067     7.5202 </r>
       <r>    -9.7000     0.0106     7.5203 </r>
       <r>    -9.6900     0.0165     7.5204 </r>
       <r>    -9.6800     0.0252     7.5207 </r>
       <r>    -9.6700     0.0377     7.5211 </r>
       <r>    -9.6600     0.0553     7.5216 </r>
       <r>    -9.6500     0.0795     7.5224 </r>
       <r>    -9.6400     0.1121     7.5235 </r>
       <r>    -9.6300     0.1549     7.5251 </r>
       <r>    -9.6200     0.2097     7.5272 </r>
       <r>    -9.6100     0.2783     7.5300 </r>
       <r>    -9.6000     0.3622     7.5336 </r>
       <r>    -9.5900     0.4619     7.5382 </r>
       <r>    -9.5800     0.5774     7.5440 </r>
       <r>    -9.5700     0.7076     7.5511 </r>
       <r>    -9.5600     0.8500     7.5596 </r>
       <r>    -9.5500     1.0010     7.5696 </r>
       <r>    -9.5400     1.1554     7.5811 </r>
       <r>    -9.5300     1.3074     7.5942 </r>
       <r>    -9.5200     1.4501     7.6087 </r>
       <r>    -9.5100     1.5769     7.6245 </r>
       <r>    -9.5000     1.6810     7.6413 </r>
       <r>    -9.4900     1.7570     7.6588 </r>
       <r>    -9.4800     1.8007     7.6769 </r>
       <r>    -9.4700     1.8099     7.6950 </r>
       <r>    -9.4600     1.7845     7.7128 </r>
       <r>    -9.4500     1.7265     7.7301 </r>
       <r>    -9.4400     1.6401     7.7465 </r>
       <r>    -9.4300     1.5309     7.7618 </r>
       <r>    -9.4200     1.4058     7.7758 </r>
       <r>    -9.4100     1.2722     7.7886 </r>
       <r>    -9.4000     1.1374     7.7999 </r>
       <r>    -9.3900     1.0081     7.8100 </r>
       <r>    -9.3800     0.8897     7.8189 </r>
       <r>    -9.3700     0.7865     7.8268 </r>
       <r>    -9.3600     0.7011     7.8338 </r>
       <r>    -9.3500     0.6346     7.8401 </r>
       <r>    -9.3400     0.5867     7.8460 </r>
       <r>    -9.3300     0.5559     7.8516 </r>
       <r>    -9.3200     0.5401     7.8570 </r>
       <r>    -9.3100     0.5365     7.8623 </r>
       <r>    -9.3000     0.5424     7.8677 </r>
       <r>    -9.2900     0.5552     7.8733 </r>
       <r>    -9.2800     0.5728     7.8790 </r>
       <r>    -9.2700     0.5937     7.8850 </r>
       <r>    -9.2600     0.6171     7.8911 </r>
       <r>    -9.2500     0.6425     7.8976 </r>
       <r>    -9.2400     0.6702     7.9043 </r>
       <r>    -9.2300     0.7003     7.9113 </r>
       <r>    -9.2200     0.7331     7.9186 </r>
       <r>    -9.2100     0.7686     7.9263 </r>
       <r>    -9.2000     0.8064     7.9343 </r>
       <r>    -9.1900     0.8453     7.9428 </r>
       <r>    -9.1800     0.8838     7.9516 </r>
       <r>    -9.1700     0.9198     7.9608 </r>
       <r>    -9.1600     0.9512     7.9703 </r>
       <r>    -9.1500     0.9757     7.9801 </r>
       <r>    -9.1400     0.9918     7.9900 </r>
       <r>    -9.1300     0.9984     8.0000 </r>
       <r>    -9.1200     0.9957     8.0100 </r>
       <r>    -9.1100     0.9852     8.0198 </r>
       <r>    -9.1000     0.9697     8.0295 </r>
       <r>    -9.0900     0.9531     8.0390 </r>
       <r>    -9.0800     0.9408     8.0484 </r>
       <r>    -9.0700     0.9387     8.0578 </r>
       <r>    -9.0600     0.9535     8.0674 </r>
       <r>    -9.0500     0.9918     8.0773 </r>
       <r>    -9.0400     1.0602     8.0879 </r>
       <r>    -9.0300     1.1645     8.0995 </r>
       <r>    -9.0200     1.3101     8.1126 </r>
       <r>    -9.0100     1.5013     8.1276 </r>
       <r>    -9.0000     1.7416     8.1451 </r>
       <r>    -8.9900     2.0339     8.1654 </r>
       <r>    -8.9800     2.3804     8.1892 </r>
       <r>    -8.9700     2.7828     8.2170 </r>
       <r>    -8.9600     3.2428     8.2495 </r>
       <r>    -8.9500     3.7615     8.2871 </r>
       <r>    -8.9400     4.3398     8.3305 </r>
       <r>    -8.9300     4.9778     8.3803 </r>
       <r>    -8.9200     5.6740     8.4370 </r>
       <r>    -8.9100     6.4255     8.5013 </r>
       <r>    -8.9000     7.2263     8.5735 </r>
       <r>    -8.8900     8.0672     8.6542 </r>
       <r>    -8.8800     8.9353     8.7435 </r>
       <r>    -8.8700     9.8140     8.8417 </r>
       <r>    -8.8600    10.6827     8.9485 </r>
       <r>    -8.8500    11.5183     9.0637 </r>
       <r>    -8.8400    12.2958     9.1866 </r>
       <r>    -8.8300    12.9898     9.3165 </r>
       <r>    -8.8200    13.5763     9.4523 </r>
       <r>    -8.8100    14.0343     9.5926 </r>
       <r>    -8.8000    14.3472     9.7361 </r>
       <r>    -8.7900    14.5041     9.8812 </r>
       <r>    -8.7800    14.5003    10.0262 </r>
       <r>    -8.7700    14.3375    10.1695 </r>
       <r>    -8.7600    14.0236    10.3098 </r>
       <r>    -8.7500    13.5720    10.4455 </r>
       <r>    -8.7400    13.0000    10.5755 </r>
       <r>    -8.7300    12.3282    10.6988 </r>
       <r>    -8.7200    11.5786    10.8146 </r>
       <r>    -8.7100    10.7736    10.9223 </r>
       <r>    -8.7000     9.9350    11.0217 </r>
       <r>    -8.6900     9.0828    11.1125 </r>
       <r>    -8.6800     8.2352    11.1948 </r>
       <r>    -8.6700     7.4082    11.2689 </r>
       <r>    -8.6600     6.6152    11.3351 </r>
       <r>    -8.6500     5.8676    11.3937 </r>
       <r>    -8.6400     5.1747    11.4455 </r>
       <r>    -8.6300     4.5439    11.4909 </r>
       <r>    -8.6200     3.9807    11.5307 </r>
       <r>    -8.6100     3.4890    11.5656 </r>
       <r>    -8.6000     3.0706    11.5963 </r>
       <r>    -8.5900     2.7258    11.6236 </r>
       <r>    -8.5800     2.4524    11.6481 </r>
       <r>    -8.5700     2.2463    11.6706 </r>
       <r>    -8.5600     2.1011    11.6916 </r>
       <r>    -8.5500     2.0085    11.7117 </r>
       <r>    -8.5400     1.9586    11.7313 </r>
       <r>    -8.5300     1.9402    11.7507 </r>
       <r>    -8.5200     1.9418    11.7701 </r>
       <r>    -8.5100     1.9520    11.7896 </r>
       <r>    -8.5000     1.9604    11.8092 </r>
       <r>    -8.4900     1.9583    11.8288 </r>
       <r>    -8.4800     1.9391    11.8482 </r>
       <r>    -8.4700     1.8990    11.8672 </r>
       <r>    -8.4600     1.8367    11.8855 </r>
       <r>    -8.4500     1.7533    11.9031 </r>
       <r>    -8.4400     1.6521    11.9196 </r>
       <r>    -8.4300     1.5378    11.9350 </r>
       <r>    -8.4200     1.4162    11.9491 </r>
       <r>    -8.4100     1.2930    11.9621 </r>
       <r>    -8.4000     1.1735    11.9738 </r>
       <r>    -8.3900     1.0621    11.9844 </r>
       <r>    -8.3800     0.9618    11.9940 </r>
       <r>    -8.3700     0.8744    12.0028 </r>
       <r>    -8.3600     0.8001    12.0108 </r>
       <r>    -8.3500     0.7382    12.0182 </r>
       <r>    -8.3400     0.6870    12.0250 </r>
       <r>    -8.3300     0.6444    12.0315 </r>
       <r>    -8.3200     0.6082    12.0376 </r>
       <r>    -8.3100     0.5767    12.0433 </r>
       <r>    -8.3000     0.5484    12.0488 </r>
       <r>    -8.2900     0.5224    12.0540 </r>
       <r>    -8.2800     0.4985    12.0590 </r>
       <r>    -8.2700     0.4771    12.0638 </r>
       <r>    -8.2600     0.4587    12.0684 </r>
       <r>    -8.2500     0.4442    12.0728 </r>
       <r>    -8.2400     0.4344    12.0772 </r>
       <r>    -8.2300     0.4296    12.0815 </r>
       <r>    -8.2200     0.4298    12.0858 </r>
       <r>    -8.2100     0.4348    12.0901 </r>
       <r>    -8.2000     0.4434    12.0945 </r>
       <r>    -8.1900     0.4544    12.0991 </r>
       <r>    -8.1800     0.4663    12.1037 </r>
       <r>    -8.1700     0.4774    12.1085 </r>
       <r>    -8.1600     0.4864    12.1134 </r>
       <r>    -8.1500     0.4922    12.1183 </r>
       <r>    -8.1400     0.4945    12.1232 </r>
       <r>    -8.1300     0.4937    12.1282 </r>
       <r>    -8.1200     0.4910    12.1331 </r>
       <r>    -8.1100     0.4885    12.1380 </r>
       <r>    -8.1000     0.4892    12.1429 </r>
       <r>    -8.0900     0.4965    12.1478 </r>
       <r>    -8.0800     0.5145    12.1530 </r>
       <r>    -8.0700     0.5473    12.1585 </r>
       <r>    -8.0600     0.5988    12.1644 </r>
       <r>    -8.0500     0.6727    12.1712 </r>
       <r>    -8.0400     0.7716    12.1789 </r>
       <r>    -8.0300     0.8973    12.1879 </r>
       <r>    -8.0200     1.0500    12.1984 </r>
       <r>    -8.0100     1.2284    12.2106 </r>
       <r>    -8.0000     1.4297    12.2249 </r>
       <r>    -7.9900     1.6493    12.2414 </r>
       <r>    -7.9800     1.8811    12.2602 </r>
       <r>    -7.9700     2.1178    12.2814 </r>
       <r>    -7.9600     2.3512    12.3049 </r>
       <r>    -7.9500     2.5726    12.3307 </r>
       <r>    -7.9400     2.7734    12.3584 </r>
       <r>    -7.9300     2.9453    12.3878 </r>
       <r>    -7.9200     3.0814    12.4187 </r>
       <r>    -7.9100     3.1762    12.4504 </r>
       <r>    -7.9000     3.2262    12.4827 </r>
       <r>    -7.8900     3.2301    12.5150 </r>
       <r>    -7.8800     3.1888    12.5469 </r>
       <r>    -7.8700     3.1057    12.5779 </r>
       <r>    -7.8600     2.9865    12.6078 </r>
       <r>    -7.8500     2.8388    12.6362 </r>
       <r>    -7.8400     2.6714    12.6629 </r>
       <r>    -7.8300     2.4943    12.6878 </r>
       <r>    -7.8200     2.3177    12.7110 </r>
       <r>    -7.8100     2.1515    12.7325 </r>
       <r>    -7.8000     2.0041    12.7526 </r>
       <r>    -7.7900     1.8826    12.7714 </r>
       <r>    -7.7800     1.7915    12.7893 </r>
       <r>    -7.7700     1.7330    12.8066 </r>
       <r>    -7.7600     1.7061    12.8237 </r>
       <r>    -7.7500     1.7078    12.8408 </r>
       <r>    -7.7400     1.7322    12.8581 </r>
       <r>    -7.7300     1.7721    12.8758 </r>
       <r>    -7.7200     1.8191    12.8940 </r>
       <r>    -7.7100     1.8650    12.9127 </r>
       <r>    -7.7000     1.9021    12.9317 </r>
       <r>    -7.6900     1.9243    12.9509 </r>
       <r>    -7.6800     1.9281    12.9702 </r>
       <r>    -7.6700     1.9124    12.9893 </r>
[...]
        <r>  0.0000  0.0013  0.0000  0.0013  0.0000  0.0000  0.0000  0.0000  0.0000 </r>
        <r>  0.0000  0.0148  0.0000  0.0148  0.0000  0.0000  0.0000  0.0000  0.0000 </r>
        <r>  0.0000  0.0148  0.0000  0.0148  0.0000  0.0000  0.0000  0.0000  0.0000 </r>
        <r>  0.0556  0.0002  0.0195  0.0002  0.0000  0.0000  0.0000  0.0000  0.0000 </r>
        <r>  0.0556  0.0002  0.0195  0.0002  0.0000  0.0000  0.0000  0.0000  0.0000 </r>
        <r>  0.0713  0.0001  0.0133  0.0001  0.0000  0.0000  0.0000  0.0000  0.0000 </r>
        <r>  0.0713  0.0001  0.0133  0.0001  0.0000  0.0000  0.0000  0.0000  0.0000 </r>
        <r>  0.0000  0.0122  0.0000  0.0122  0.0000  0.0000  0.0000  0.0000  0.0000 </r>
        <r>  0.0000  0.0122  0.0000  0.0122  0.0000  0.0000  0.0000  0.0000  0.0000 </r>
       </set>
       <set comment="band 8">
        <r>  0.0107  0.0107  0.0004  0.0107  0.0000  0.0000  0.0000  0.0000  0.0000 </r>
        <r>  0.0107  0.0107  0.0004  0.0107  0.0000  0.0000  0.0000  0.0000  0.0000 </r>
        <r>  0.0587  0.0042  0.0089  0.0042  0.0000  0.0000  0.0000  0.0000  0.0000 </r>
        <r>  0.0587  0.0042  0.0089  0.0042  0.0000  0.0000  0.0000  0.0000  0.0000 </r>
        <r>  0.0311  0.0023  0.0158  0.0023  0.0000  0.0000  0.0000  0.0000  0.0000 </r>
        <r>  0.0311  0.0023  0.0158  0.0023  0.0000  0.0000  0.0000  0.0000  0.0000 </r>
        <r>  0.0012  0.0078  0.0108  0.0078  0.0000  0.0000  0.0000  0.0000  0.0000 </r>
        <r>  0.0012  0.0078  0.0108  0.0078  0.0000  0.0000  0.0000  0.0000  0.0000 </r>
        <r>  0.0306  0.0006  0.0000  0.0006  0.0000  0.0000  0.0000  0.0000  0.0000 </r>
        <r>  0.0306  0.0006  0.0000  0.0006  0.0000  0.0000  0.0000  0.0000  0.0000 </r>
       </set>
       <set comment="band 9">
        <r>  0.0920  0.0000  0.0011  0.0000  0.0000  0.0000  0.0000  0.0000  0.0000 </r>
        <r>  0.0920  0.0000  0.0011  0.0000  0.0000  0.0000  0.0000  0.0000  0.0000 </r>
        <r>  0.0327  0.0007  0.0389  0.0007  0.0000  0.0000  0.0000  0.0000  0.0000 </r>
        <r>  0.0327  0.0007  0.0389  0.0007  0.0000  0.0000  0.0000  0.0000  0.0000 </r>
        <r>  0.0000  0.0199  0.0000  0.0199  0.0000  0.0000  0.0000  0.0000  0.0000 </r>
        <r>  0.0000  0.0199  0.0000  0.0199  0.0000  0.0000  0.0000  0.0000  0.0000 </r>
        <r>  0.0000  0.0000  0.0000  0.0000  0.0000  0.0000  0.0000  0.0000  0.0000 </r>
        <r>  0.0000  0.0000  0.0000  0.0000  0.0000  0.0000  0.0000  0.0000  0.0000 </r>
        <r>  0.0196  0.0000  0.0002  0.0000  0.0000  0.0000  0.0000  0.0000  0.0000 </r>
        <r>  0.0196  0.0000  0.0002  0.0000  0.0000  0.0000  0.0000  0.0000  0.0000 </r>
       </set>
       <set comment="band 10">
        <r>  0.0247  0.0008  0.0002  0.0008  0.0000  0.0000  0.0000  0.0000  0.0000 </r>
        <r>  0.0247  0.0008  0.0002  0.0008  0.0000  0.0000  0.0000  0.0000  0.0000 </r>
        <r>  0.0047  0.0000  0.0003  0.0000  0.0000  0.0000  0.0000  0.0000  0.0000 </r>
        <r>  0.0047  0.0000  0.0003  0.0000  0.0000  0.0000  0.0000  0.0000  0.0000 </r>
        <r>  0.0044  0.0184  0.0043  0.0184  0.0000  0.0000  0.0000  0.0000  0.0000 </r>
        <r>  0.0044  0.0184  0.0043  0.0184  0.0000  0.0000  0.0000  0.0000  0.0000 </r>
        <r>  0.0299  0.0071  0.0290  0.0071  0.0000  0.0000  0.0000  0.0000  0.0000 </r>
        <r>  0.0299  0.0071  0.0290  0.0071  0.0000  0.0000  0.0000  0.0000  0.0000 </r>
        <r>  0.0549  0.0016  0.0018  0.0016  0.0000  0.0000  0.0000  0.0000  0.0000 </r>
        <r>  0.0550  0.0016  0.0018  0.0016  0.0000  0.0000  0.0000  0.0000  0.0000 </r>
       </set>
       <set comment="band 11">
        <r>  0.0000  0.0108  0.0000  0.0108  0.0000  0.0000  0.0000  0.0000  0.0000 </r>
        <r>  0.0000  0.0108  0.0000  0.0108  0.0000  0.0000  0.0000  0.0000  0.0000 </r>
        <r>  0.0000  0.0135  0.0000  0.0135  0.0000  0.0000  0.0000  0.0000  0.0000 </r>
        <r>  0.0000  0.0135  0.0000  0.0135  0.0000  0.0000  0.0000  0.0000  0.0000 </r>
        <r>  0.0118  0.0001  0.0332  0.0001  0.0000  0.0000  0.0000  0.0000  0.0000 </r>
        <r>  0.0118  0.0001  0.0332  0.0001  0.0000  0.0000  0.0000  0.0000  0.0000 </r>
        <r>  0.0004  0.0018  0.0414  0.0018  0.0000  0.0000  0.0000  0.0000  0.0000 </r>
        <r>  0.0004  0.0018  0.0414  0.0018  0.0000  0.0000  0.0000  0.0000  0.0000 </r>
        <r>  0.0000  0.0156  0.0000  0.0156  0.0000  0.0000  0.0000  0.0000  0.0000 </r>
        <r>  0.0000  0.0156  0.0000  0.0156  0.0000  0.0000  0.0000  0.0000  0.0000 </r>
       </set>
       <set comment="band 12">
        <r>  0.0005  0.0175  0.0028  0.0175  0.0000  0.0000  0.0000  0.0000  0.0000 </r>
        <r>  0.0005  0.0175  0.0028  0.0175  0.0000  0.0000  0.0000  0.0000  0.0000 </r>
        <r>  0.0000  0.0026  0.0448  0.0026  0.0000  0.0000  0.0000  0.0000  0.0000 </r>
        <r>  0.0000  0.0026  0.0449  0.0026  0.0000  0.0000  0.0000  0.0000  0.0000 </r>
        <r>  0.0075  0.0000  0.0299  0.0000  0.0000  0.0000  0.0000  0.0000  0.0000 </r>
        <r>  0.0075  0.0000  0.0299  0.0000  0.0000  0.0000  0.0000  0.0000  0.0000 </r>
        <r>  0.0068  0.0104  0.0013  0.0104  0.0000  0.0000  0.0000  0.0000  0.0000 </r>
        <r>  0.0068  0.0104  0.0013  0.0104  0.0000  0.0000  0.0000  0.0000  0.0000 </r>
        <r>  0.0124  0.0065  0.0015  0.0065  0.0000  0.0000  0.0000  0.0000  0.0000 </r>
        <r>  0.0124  0.0065  0.0015  0.0065  0.0000  0.0000  0.0000  0.0000  0.0000 </r>
       </set>
       <set comment="band 13">
        <r>  0.0000  0.0007  0.0000  0.0007  0.0000  0.0000  0.0000  0.0000  0.0000 </r>
        <r>  0.0000  0.0007  0.0000  0.0007  0.0000  0.0000  0.0000  0.0000  0.0000 </r>
        <r>  0.0000  0.0002  0.0000  0.0002  0.0000  0.0000  0.0000  0.0000  0.0000 </r>
        <r>  0.0000  0.0002  0.0000  0.0002  0.0000  0.0000  0.0000  0.0000  0.0000 </r>
        <r>  0.0073  0.0459  0.0005  0.0459  0.0000  0.0000  0.0000  0.0000  0.0000 </r>
        <r>  0.0073  0.0459  0.0005  0.0459  0.0000  0.0000  0.0000  0.0000  0.0000 </r>
        <r>  0.0081  0.0391  0.0161  0.0391  0.0000  0.0000  0.0000  0.0000  0.0000 </r>
        <r>  0.0081  0.0391  0.0161  0.0391  0.0000  0.0000  0.0000  0.0000  0.0000 </r>
        <r>  0.0000  0.0019  0.0000  0.0019  0.0000  0.0000  0.0000  0.0000  0.0000 </r>
        <r>  0.0000  0.0019  0.0000  0.0019  0.0000  0.0000  0.0000  0.0000  0.0000 </r>
       </set>
       <set comment="band 14">
        <r>  0.0185  0.0249  0.0007  0.0249  0.0000  0.0000  0.0000  0.0000  0.0000 </r>
        <r>  0.0185  0.0249  0.0007  0.0249  0.0000  0.0000  0.0000  0.0000  0.0000 </r>
        <r>  0.0251  0.0256  0.0068  0.0256  0.0000  0.0000  0.0000  0.0000  0.0000 </r>
        <r>  0.0251  0.0256  0.0068  0.0256  0.0000  0.0000  0.0000  0.0000  0.0000 </r>
        <r>  0.0000  0.0017  0.0000  0.0017  0.0000  0.0000  0.0000  0.0000  0.0000 </r>
        <r>  0.0000  0.0017  0.0000  0.0017  0.0000  0.0000  0.0000  0.0000  0.0000 </r>
        <r>  0.0000  0.0066  0.0000  0.0066  0.0000  0.0000  0.0000  0.0000  0.0000 </r>
        <r>  0.0000  0.0066  0.0000  0.0066  0.0000  0.0000  0.0000  0.0000  0.0000 </r>
        <r>  0.0163  0.0000  0.0191  0.0000  0.0000  0.0000  0.0000  0.0000  0.0000 </r>
        <r>  0.0163  0.0000  0.0191  0.0000  0.0000  0.0000  0.0000  0.0000  0.0000 </r>
       </set>
       <set comment="band 15">
        <r>  0.0261  0.0001  0.0441  0.0001  0.0000  0.0000  0.0000  0.0000  0.0000 </r>
        <r>  0.0261  0.0001  0.0441  0.0001  0.0000  0.0000  0.0000  0.0000  0.0000 </r>
        <r>  0.0024  0.0119  0.0010  0.0119  0.0000  0.0000  0.0000  0.0000  0.0000 </r>
        <r>  0.0024  0.0119  0.0010  0.0119  0.0000  0.0000  0.0000  0.0000  0.0000 </r>
        <r>  0.0064  0.0026  0.0001  0.0026  0.0000  0.0000  0.0000  0.0000  0.0000 </r>
        <r>  0.0064  0.0026  0.0001  0.0026  0.0000  0.0000  0.0000  0.0000  0.0000 </r>
        <r>  0.0159  0.0009  0.0011  0.0009  0.0000  0.0000  0.0000  0.0000  0.0000 </r>
        <r>  0.0159  0.0009  0.0011  0.0009  0.0000  0.0000  0.0000  0.0000  0.0000 </r>
        <r>  0.0085  0.0090  0.0108  0.0090  0.0000  0.0000  0.0000  0.0000  0.0000 </r>
        <r>  0.0085  0.0090  0.0108  0.0090  0.0000  0.0000  0.0000  0.0000  0.0000 </r>
       </set>
       <set comment="band 16">
        <r>  0.0000  0.0007  0.0000  0.0007  0.0000  0.0000  0.0000  0.0000  0.0000 </r>
        <r>  0.0000  0.0007  0.0000  0.0007  0.0000  0.0000  0.0000  0.0000  0.0000 </r>
        <r>  0.0000  0.0367  0.0000  0.0367  0.0000  0.0000  0.0000  0.0000  0.0000 </r>
        <r>  0.0000  0.0367  0.0000  0.0367  0.0000  0.0000  0.0000  0.0000  0.0000 </r>
        <r>  0.0000  0.0419  0.0000  0.0419  0.0000  0.0000  0.0000  0.0000  0.0000 </r>
        <r>  0.0000  0.0419  0.0000  0.0419  0.0000  0.0000  0.0000  0.0000  0.0000 </r>
        <r>  0.0000  0.0168  0.0000  0.0168  0.0000  0.0000  0.0000  0.0000  0.0000 </r>
        <r>  0.0000  0.0168  0.0000  0.0168  0.0000  0.0000  0.0000  0.0000  0.0000 </r>
        <r>  0.0000  0.0113  0.0000  0.0113  0.0000  0.0000  0.0000  0.0000  0.0000 </r>
        <r>  0.0000  0.0113  0.0000  0.0113  0.0000  0.0000  0.0000  0.0000  0.0000 </r>
       </set>
       <set comment="band 17">
        <r>  0.0033  0.0190  0.0212  0.0190  0.0000  0.0000  0.0000  0.0000  0.0000 </r>
        <r>  0.0033  0.0190  0.0212  0.0190  0.0000  0.0000  0.0000  0.0000  0.0000 </r>
        <r>  0.0035  0.0227  0.0023  0.0227  0.0000  0.0000  0.0000  0.0000  0.0000 </r>
        <r>  0.0035  0.0227  0.0023  0.0227  0.0000  0.0000  0.0000  0.0000  0.0000 </r>
        <r>  0.0000  0.0004  0.0000  0.0004  0.0000  0.0000  0.0000  0.0000  0.0000 </r>
        <r>  0.0000  0.0004  0.0000  0.0004  0.0000  0.0000  0.0000  0.0000  0.0000 </r>
        <r>  0.0000  0.0096  0.0000  0.0096  0.0000  0.0000  0.0000  0.0000  0.0000 </r>
        <r>  0.0000  0.0096  0.0000  0.0096  0.0000  0.0000  0.0000  0.0000  0.0000 </r>
        <r>  0.0157  0.0000  0.0371  0.0000  0.0000  0.0000  0.0000  0.0000  0.0000 </r>
        <r>  0.0157  0.0000  0.0371  0.0000  0.0000  0.0000  0.0000  0.0000  0.0000 </r>
       </set>
       <set comment="band 18">
        <r>  0.0000  0.0003  0.0000  0.0003  0.0000  0.0000  0.0000  0.0000  0.0000 </r>
        <r>  0.0000  0.0003  0.0000  0.0003  0.0000  0.0000  0.0000  0.0000  0.0000 </r>
        <r>  0.0000  0.0168  0.0000  0.0168  0.0000  0.0000  0.0000  0.0000  0.0000 </r>
        <r>  0.0000  0.0168  0.0000  0.0168  0.0000  0.0000  0.0000  0.0000  0.0000 </r>
        <r>  0.0000  0.0124  0.0000  0.0124  0.0000  0.0000  0.0000  0.0000  0.0000 </r>
        <r>  0.0000  0.0124  0.0000  0.0124  0.0000  0.0000  0.0000  0.0000  0.0000 </r>
        <r>  0.0000  0.0413  0.0000  0.0413  0.0000  0.0000  0.0000  0.0000  0.0000 </r>
        <r>  0.0000  0.0413  0.0000  0.0413  0.0000  0.0000  0.0000  0.0000  0.0000 </r>
        <r>  0.0000  0.0406  0.0000  0.0406  0.0000  0.0000  0.0000  0.0000  0.0000 </r>
        <r>  0.0000  0.0406  0.0000  0.0406  0.0000  0.0000  0.0000  0.0000  0.0000 </r>
       </set>
       <set comment="band 19">
        <r>  0.0000  0.0379  0.0000  0.0379  0.0000  0.0000  0.0000  0.0000  0.0000 </r>
        <r>  0.0000  0.0379  0.0000  0.0379  0.0000  0.0000  0.0000  0.0000  0.0000 </r>
        <r>  0.0000  0.0020  0.0000  0.0020  0.0000  0.0000  0.0000  0.0000  0.0000 </r>
        <r>  0.0000  0.0020  0.0000  0.0020  0.0000  0.0000  0.0000  0.0000  0.0000 </r>
        <r>  0.0096  0.0012  0.0327  0.0012  0.0000  0.0000  0.0000  0.0000  0.0000 </r>
        <r>  0.0096  0.0012  0.0327  0.0012  0.0000  0.0000  0.0000  0.0000  0.0000 </r>
        <r>  0.0034  0.0061  0.0087  0.0061  0.0000  0.0000  0.0000  0.0000  0.0000 </r>
        <r>  0.0034  0.0061  0.0087  0.0061  0.0000  0.0000  0.0000  0.0000  0.0000 </r>
        <r>  0.0000  0.0045  0.0000  0.0045  0.0000  0.0000  0.0000  0.0000  0.0000 </r>
        <r>  0.0000  0.0045  0.0000  0.0045  0.0000  0.0000  0.0000  0.0000  0.0000 </r>
       </set>
       <set comment="band 20">
        <r>  0.0025  0.0047  0.0160  0.0047  0.0000  0.0000  0.0000  0.0000  0.0000 </r>
        <r>  0.0025  0.0047  0.0160  0.0047  0.0000  0.0000  0.0000  0.0000  0.0000 </r>
        <r>  0.0054  0.0027  0.0163  0.0027  0.0000  0.0000  0.0000  0.0000  0.0000 </r>
        <r>  0.0054  0.0027  0.0163  0.0027  0.0000  0.0000  0.0000  0.0000  0.0000 </r>
        <r>  0.0106  0.0007  0.0261  0.0007  0.0000  0.0000  0.0000  0.0000  0.0000 </r>
        <r>  0.0106  0.0007  0.0261  0.0007  0.0000  0.0000  0.0000  0.0000  0.0000 </r>
        <r>  0.0009  0.0027  0.0006  0.0027  0.0000  0.0000  0.0000  0.0000  0.0000 </r>
        <r>  0.0009  0.0027  0.0006  0.0027  0.0000  0.0000  0.0000  0.0000  0.0000 </r>
        <r>  0.0022  0.0324  0.0008  0.0324  0.0000  0.0000  0.0000  0.0000  0.0000 </r>
        <r>  0.0022  0.0324  0.0008  0.0324  0.0000  0.0000  0.0000  0.0000  0.0000 </r>
       </set>
       <set comment="band 21">
        <r>  0.0006  0.0009  0.0276  0.0009  0.0000  0.0000  0.0000  0.0000  0.0000 </r>
        <r>  0.0006  0.0009  0.0274  0.0009  0.0000  0.0000  0.0000  0.0000  0.0000 </r>
        <r>  0.0044  0.0035  0.0008  0.0035  0.0000  0.0000  0.0000  0.0000  0.0000 </r>
        <r>  0.0044  0.0035  0.0008  0.0035  0.0000  0.0000  0.0000  0.0000  0.0000 </r>
        <r>  0.0049  0.0105  0.0001  0.0104  0.0000  0.0000  0.0000  0.0000  0.0000 </r>
        <r>  0.0049  0.0104  0.0001  0.0105  0.0000  0.0000  0.0000  0.0000  0.0000 </r>
        <r>  0.0057  0.0001  0.0307  0.0001  0.0000  0.0000  0.0000  0.0000  0.0000 </r>
        <r>  0.0057  0.0001  0.0307  0.0001  0.0000  0.0000  0.0000  0.0000  0.0000 </r>
        <r>  0.0141  0.0003  0.0710  0.0003  0.0000  0.0000  0.0000  0.0000  0.0000 </r>
        <r>  0.0141  0.0003  0.0708  0.0003  0.0000  0.0000  0.0000  0.0000  0.0000 </r>
       </set>
       <set comment="band 22">
        <r>  0.0152  0.0006  0.0667  0.0006  0.0000  0.0000  0.0000  0.0000  0.0000 </r>
        <r>  0.0153  0.0006  0.0669  0.0006  0.0000  0.0000  0.0000  0.0000  0.0000 </r>
        <r>  0.0046  0.0010  0.0310  0.0010  0.0000  0.0000  0.0000  0.0000  0.0000 </r>
        <r>  0.0046  0.0010  0.0310  0.0010  0.0000  0.0000  0.0000  0.0000  0.0000 </r>
        <r>  0.0000  0.0115  0.0000  0.0115  0.0000  0.0000  0.0000  0.0000  0.0000 </r>
        <r>  0.0000  0.0115  0.0000  0.0115  0.0000  0.0000  0.0000  0.0000  0.0000 </r>
        <r>  0.0000  0.0055  0.0000  0.0055  0.0000  0.0000  0.0000  0.0000  0.0000 </r>
        <r>  0.0000  0.0055  0.0000  0.0055  0.0000  0.0000  0.0000  0.0000  0.0000 </r>
        <r>  0.0012  0.0012  0.0326  0.0012  0.0000  0.0000  0.0000  0.0000  0.0000 </r>
        <r>  0.0012  0.0012  0.0327  0.0012  0.0000  0.0000  0.0000  0.0000  0.0000 </r>
       </set>
       <set comment="band 23">
        <r>  0.0000  0.0001  0.0057  0.0001  0.0000  0.0000  0.0000  0.0000  0.0000 </r>
        <r>  0.0000  0.0001  0.0057  0.0001  0.0000  0.0000  0.0000  0.0000  0.0000 </r>
        <r>  0.0006  0.0000  0.0022  0.0000  0.0000  0.0000  0.0000  0.0000  0.0000 </r>
        <r>  0.0006  0.0000  0.0022  0.0000  0.0000  0.0000  0.0000  0.0000  0.0000 </r>
        <r>  0.0000  0.0000  0.0000  0.0000  0.0000  0.0000  0.0000  0.0000  0.0000 </r>
        <r>  0.0000  0.0000  0.0000  0.0000  0.0000  0.0000  0.0000  0.0000  0.0000 </r>
        <r>  0.0000  0.0001  0.0000  0.0001  0.0000  0.0000  0.0000  0.0000  0.0000 </r>
        <r>  0.0000  0.0001  0.0000  0.0001  0.0000  0.0000  0.0000  0.0000  0.0000 </r>
        <r>  0.0039  0.0764  0.0006  0.0764  0.0000  0.0000  0.0000  0.0000  0.0000 </r>
        <r>  0.0039  0.0764  0.0006  0.0764  0.0000  0.0000  0.0000  0.0000  0.0000 </r>
       </set>
       <set comment="band 24">
        <r>  0.0000  0.0846  0.0000  0.0846  0.0000  0.0000  0.0000  0.0000  0.0000 </r>
        <r>  0.0000  0.0846  0.0000  0.0846  0.0000  0.0000  0.0000  0.0000  0.0000 </r>
        <r>  0.0000  0.0002  0.0000  0.0002  0.0000  0.0000  0.0000  0.0000  0.0000 </r>
        <r>  0.0000  0.0002  0.0000  0.0002  0.0000  0.0000  0.0000  0.0000  0.0000 </r>
        <r>  0.0000  0.0054  0.0000  0.0054  0.0000  0.0000  0.0000  0.0000  0.0000 </r>
        <r>  0.0000  0.0054  0.0000  0.0054  0.0000  0.0000  0.0000  0.0000  0.0000 </r>
        <r>  0.0000  0.0000  0.0000  0.0000  0.0000  0.0000  0.0000  0.0000  0.0000 </r>
        <r>  0.0000  0.0000  0.0000  0.0000  0.0000  0.0000  0.0000  0.0000  0.0000 </r>
        <r>  0.0000  0.0001  0.0000  0.0001  0.0000  0.0000  0.0000  0.0000  0.0000 </r>
        <r>  0.0000  0.0001  0.0000  0.0001  0.0000  0.0000  0.0000  0.0000  0.0000 </r>
       </set>
       <set comment="band 25">
        <r>  0.0000  0.0007  0.0038  0.0007  0.0000  0.0000  0.0000  0.0000  0.0000 </r>
        <r>  0.0000  0.0007  0.0038  0.0007  0.0000  0.0000  0.0000  0.0000  0.0000 </r>
        <r>  0.0167  0.0000  0.0135  0.0000  0.0000  0.0000  0.0000  0.0000  0.0000 </r>
        <r>  0.0167  0.0000  0.0135  0.0000  0.0000  0.0000  0.0000  0.0000  0.0000 </r>
        <r>  0.0192  0.0000  0.0207  0.0000  0.0000  0.0000  0.0000  0.0000  0.0000 </r>
        <r>  0.0192  0.0000  0.0207  0.0000  0.0000  0.0000  0.0000  0.0000  0.0000 </r>
        <r>  0.0238  0.0000  0.0123  0.0000  0.0000  0.0000  0.0000  0.0000  0.0000 </r>
        <r>  0.0238  0.0000  0.0123  0.0000  0.0000  0.0000  0.0000  0.0000  0.0000 </r>
        <r>  0.0183  0.0007  0.0065  0.0007  0.0000  0.0000  0.0000  0.0000  0.0000 </r>
        <r>  0.0183  0.0007  0.0065  0.0007  0.0000  0.0000  0.0000  0.0000  0.0000 </r>
       </set>
       <set comment="band 26">
        <r>  0.0016  0.0004  0.0017  0.0004  0.0000  0.0000  0.0000  0.0000  0.0000 </r>
        <r>  0.0016  0.0004  0.0017  0.0004  0.0000  0.0000  0.0000  0.0000  0.0000 </r>
        <r>  0.0312  0.0003  0.0073  0.0003  0.0000  0.0000  0.0000  0.0000  0.0000 </r>
        <r>  0.0312  0.0003  0.0073  0.0003  0.0000  0.0000  0.0000  0.0000  0.0000 </r>
        <r>  0.0186  0.0001  0.0181  0.0001  0.0000  0.0000  0.0000  0.0000  0.0000 </r>
        <r>  0.0184  0.0001  0.0182  0.0001  0.0000  0.0000  0.0000  0.0000  0.0000 </r>
        <r>  0.0304  0.0000  0.0055  0.0000  0.0000  0.0000  0.0000  0.0000  0.0000 </r>
        <r>  0.0304  0.0000  0.0055  0.0000  0.0000  0.0000  0.0000  0.0000  0.0000 </r>
        <r>  0.0227  0.0006  0.0324  0.0006  0.0000  0.0000  0.0000  0.0000  0.0000 </r>
        <r>  0.0227  0.0006  0.0323  0.0006  0.0000  0.0000  0.0000  0.0000  0.0000 </r>
       </set>
      </set>
     </set>
    </set>
   </array>
  </projected>
 </calculation>
 <structure name="finalpos" >
  <crystal>
   <varray name="basis" >
    <v>       5.43101000       0.00000000       0.00000000 </v>
    <v>       0.00000000       5.43101000       0.00000000 </v>
    <v>       0.00000000       0.00000000      20.79101000 </v>
   </varray>
   <i name="volume">    613.24892023 </i>
   <varray name="rec_basis" >
    <v>       0.18412781       0.00000000       0.00000000 </v>
    <v>       0.00000000       0.18412781       0.00000000 </v>
    <v>       0.00000000       0.00000000       0.04809771 </v>
   </varray>
  </crystal>
  <varray name="positions" >
   <v>       0.00000000       0.00000000       0.00000000 </v>
   <v>       0.49999908       0.49999908       0.00000000 </v>
   <v>       0.24999954       0.24999954       0.06530467 </v>
   <v>       0.75000046       0.75000046       0.06530467 </v>
   <v>       0.00000000       0.49999908       0.13060934 </v>
   <v>       0.49999908       0.00000000       0.13060934 </v>
   <v>       0.24999954       0.75000046       0.19591448 </v>
   <v>       0.75000046       0.24999954       0.19591448 </v>
   <v>       0.00000000       0.00000000       0.26121915 </v>
   <v>       0.49999908       0.49999908       0.26121915 </v>
  </varray>
 </structure>
</modeling>
