unknown system                          
           1
     5.431010    0.000000    0.000000
     0.000000    5.431010    0.000000
     0.000000    0.000000   20.791010
   Si
  10
Direct configuration=     1
   0.00000000  0.00000000  0.00000000
   0.49999908  0.49999908  0.00000000
   0.24999954  0.24999954  0.06530467
   0.75000046  0.75000046  0.06530467
   0.00000000  0.49999908  0.13060934
   0.49999908  0.00000000  0.13060934
   0.24999954  0.75000046  0.19591448
   0.75000046  0.24999954  0.19591448
   0.00000000  0.00000000  0.26121915
   0.49999908  0.49999908  0.26121915
