unknown system                          
   1.00000000000000     
     4.913700    0.000000    0.000000
    -2.456850    4.255389    0.000000
     0.000000    0.000000    5.405130
   Si   O 
     3     6
Direct
  0.469800  0.020000  0.666670
  0.000000  0.469800  0.333330
  0.530200  0.530200  0.000000
  0.414500  0.266200  0.785600
  0.733800  0.148300  0.452270
  0.851700  0.585500  0.118930
  0.148300  0.733800  0.547730
  0.266200  0.414500  0.214400
  0.585500  0.851700  0.881070
 
   48   48   56
  1.4710      1.3862      1.3765      1.4189      1.4958      1.5972      1.7179      1.8558      2.0089      2.1739    
  2.3443      2.5117      2.6694      2.8167      2.9628      3.1269      3.3340      3.6100      3.9873      4.5231    
  5.3184      6.5182      8.2845      10.757      14.024      18.116      22.996      28.529      34.406      40.069    
  44.730      47.544      47.903      45.693      41.350      35.680      29.547      23.632      18.341      13.858    
  10.232      7.4409      5.4016      3.9842      3.0298      2.3879      1.9489      1.6524      1.4051      1.3138    
  1.3063      1.3625      1.4640      1.5995      1.7633      1.9522      2.1627      2.3900      2.6264      2.8602    
  3.0768      3.2642      3.4190      3.5501      3.6786      3.8331      4.0446      4.3494      4.8044      5.5015    
  6.5636      8.1174      10.257      13.022      16.382      20.233      24.368      28.451      32.017      34.545    
  35.586      34.917      32.636      29.128      24.925      20.542      16.371      12.662      9.5489      7.0804    
  5.2279      3.9023      2.9812      2.3444      1.9006      1.5960      1.4116      1.3235      1.3224      1.3924    
  1.5165      1.6825      1.8847      2.1204      2.3869      2.6792      2.9888      3.3012      3.5960      3.8508    
  4.0482      4.1823      4.2639      4.3193      4.3834      4.4936      4.6907      5.0298      5.5889      6.4630    
  7.7425      9.4862      11.698      14.314      17.190      20.103      22.761      24.836      26.022      26.115    
  25.075      23.050      20.326      17.243      14.115      11.191      8.6411      6.5557      4.9482      3.7662    
  2.9209      2.3206      1.8941      1.5982      1.4687      1.3961      1.4097      1.4971      1.6442      1.8400    
  2.0784      2.3582      2.6800      3.0416      3.4341      3.8408      4.2364      4.5891      4.8666      5.0458    
  5.1214      5.1100      5.0468      4.9769      4.9467      5.0016      5.1917      5.5788      6.2333      7.2161    
  8.5537      10.220      12.130      14.143      16.070      17.692      18.792      19.201      18.845      17.759    
  16.082      14.016      11.785      9.5955      7.6086      5.9260      4.5867      3.5734      2.8315      2.2943    
  1.9068      1.6365      1.5599      1.5143      1.5521      1.6634      1.8369      2.0634      2.3380      2.6619    
  3.0396      3.4739      3.9592      4.4780      5.0001      5.4838      5.8822      6.1532      6.2714      6.2371    
  6.0782      5.8441      5.5941      5.3851      5.2671      5.2860      5.4885      5.9179      6.6029      7.5439    
  8.7040      10.005      11.327      12.519      13.424      13.910      13.898      13.376      12.399      11.080    
  9.5660      8.0084      6.5370      5.2434      4.1763      3.3429      2.7176      2.2580      1.9252      1.6956    
  1.6755      1.6669      1.7378      1.8805      2.0857      2.3458      2.6584      3.0274      3.4618      3.9708    
  4.5558      5.2024      5.8765      6.5263      7.0893      7.5028      7.7182      7.7142      7.5042      7.1349    
  6.6755      6.2030      5.7873      5.4822      5.3245      5.3392      5.5451      5.9516      6.5474      7.2908    
  8.1076      8.8999      9.5608      9.9913      10.119      9.9103      9.3794      8.5821      7.6043      6.5464    
  5.5048      4.5563      3.7477      3.0952      2.5907      2.2143      1.9446      1.7673      1.8102      1.8484    
  1.9609      2.1425      2.3859      2.6850      3.0389      3.4541      3.9448      4.5281      5.2148      5.9978    
  6.8437      7.6927      8.4655      9.0761      9.4489      9.5364      9.3314      8.8706      8.2268      7.4951    
  6.7723      6.1379      5.6431      5.3129      5.1564      5.1730      5.3515      5.6659      6.0737      6.5178    
  6.9297      7.2376      7.3799      7.3193      7.0492      6.5912      5.9885      5.2996      4.5907      3.9217    
  3.3337      2.8450      2.4579      2.1673      1.9663      1.8487      1.9607      2.0545      2.2182      2.4478    
  2.7385      3.0851      3.4866      3.9508      4.4968      5.1506      5.9344      6.8523      7.8782      8.9500    
  9.9736      10.837      11.434      11.683      11.551      11.055      10.267      9.2945      8.2585      7.2729    
  6.4235      5.7580      5.2873      4.9956      4.8574      4.8470      4.9393      5.1015      5.2892      5.4506    
  5.5377      5.5168      5.3730      5.1096      4.7455      4.3111      3.8444      3.3843      2.9644      2.6078    
  2.3258      2.1210      1.9925      1.9394      2.1242      2.2805      2.5055      2.7960      3.1475      3.5550    
  4.0159      4.5373      5.1407      5.8598      6.7295      7.7697      8.9685      10.269      11.570      12.736    
  13.625      14.117      14.137      13.678      12.802      11.622      10.282      8.9321      7.6977      6.6632    
  5.8602      5.2754      4.8728      4.6149      4.4709      4.4126      4.4087      4.4245      4.4255      4.3821    
  4.2750      4.0990      3.8622      3.5797      3.2694      2.9525      2.6541      2.3994      2.2058      2.0805    
  2.0247      2.0388      2.2965      2.5205      2.8168      3.1832      3.6144      4.1032      4.6441      5.2405    
  5.9118      6.6953      7.6384      8.7799      10.127      11.639      13.217      14.715      15.956      16.771    
  17.036      16.705      15.814      14.480      12.868      11.158      9.5165      8.0674      6.8802      5.9682    
  5.3012      4.8265      4.4906      4.2534      4.0873      3.9697      3.8757      3.7788      3.6579      3.5022    
  3.3113      3.0924      2.8576      2.6228      2.4072      2.2304      2.1085      2.0515      2.0631      2.1445    
  2.4710      2.7661      3.1420      3.5993      4.1319      4.7293      5.3806      6.0818      6.8451      7.7058    
  8.7182      9.9379      11.397      13.078      14.902      16.722      18.342      19.547      20.154      20.056    
  19.251      17.842      16.009      13.965      11.914      10.024      8.4088      7.1188      6.1431      5.4259    
  4.8965      4.4966      4.1887      3.9491      3.7565      3.5890      3.4266      3.2533      3.0599      2.8473    
  2.6277      2.4200      2.2434      2.1134      2.0422      2.0391      2.1090      2.2529      2.6396      3.0053    
  3.4658      4.0254      4.6800      5.4164      6.2156      7.0630      7.9590      8.9293      10.025      11.311    
  12.843      14.635      16.639      18.727      20.703      22.323      23.345      23.591      22.995      21.623    
  19.653      17.325      14.889      12.561      10.498      8.7882      7.4474      6.4351      5.6808      5.1104    
  4.6647      4.3048      4.0061      3.7508      3.5216      3.3014      3.0770      2.8437      2.6085      2.3879    
  2.2039      2.0777      2.0251      2.0543      2.1669      2.3618      2.7954      3.2234      3.7672      4.4348    
  5.2258      6.1265      7.1115      8.1535      9.2370      10.369      11.588      12.954      14.536      16.379    
  18.474      20.734      22.985      24.981      26.440      27.113      26.851      25.656      23.676      21.161    
  18.401      15.663      13.154      11.003      9.2635      7.9194      6.9090      6.1471      5.5520      5.0637    
  4.6473      4.2828      3.9551      3.6513      3.3618      3.0810      2.8074      2.5486      2.3248      2.1647    
  2.0929      2.1209      2.2485      2.4728      2.9373      3.4084      4.0233      4.7946      5.7256      6.8045    
  8.0036      9.2855      10.616      11.978      13.383      14.875      16.516      18.372      20.471      22.781    
  25.177      27.442      29.285      30.406      30.571      29.696      27.866      25.314      22.346      19.272    
  16.354      13.778      11.641      9.9593      8.6789      7.7088      6.9517      6.3278      5.7838      5.2890    
  4.8274      4.3926      3.9829      3.5982      3.2387      2.9091      2.6238      2.4066      2.2830      2.2703    
  2.3744      2.5957      3.0732      3.5560      4.2164      5.0722      6.1310      7.3850      8.8082      10.358    
  11.987      13.649      15.323      17.015      18.766      20.637      22.685      24.930      27.315      29.685    
  31.782      33.289      33.906      33.454      31.932      29.521      26.517      23.254      20.041      17.120    
  14.638      12.645      11.105      9.9301      9.0141      8.2580      7.5847      6.9455      6.3180      5.6991    
  5.0959      4.5217      3.9928      3.5248      3.1309      2.8233      2.6170      2.5283      2.5699      2.7490    
  3.2216      3.6742      4.3403      5.2441      6.3994      7.8038      9.4361      11.256      13.207      15.225    
  17.249      19.238      21.187      23.129      25.125      27.230      29.460      31.745      33.899      35.632    
  36.627      36.632      35.544      33.449      30.607      27.366      24.061      20.967      18.269      16.052    
  14.311      12.972      11.925      11.054      10.260      9.4743      8.6589      7.8059      6.9320      6.0707    
  5.2621      4.5425      3.9368      3.4586      3.1155      2.9133      2.8578      2.9564      3.4069      3.7835    
  4.4052      5.3052      6.5058      8.0123      9.8105      11.868      14.130      16.523      18.954      21.331    
  23.589      25.709      27.720      29.686      31.669      33.658      35.549      37.172      38.295      38.663    
  38.093      36.555      34.188      31.265      28.130      25.118      22.434      20.184      18.386      16.982    
  15.868      14.922      14.033      13.114      12.105      10.983      9.7716      8.5230      7.3059      6.1852    
  5.2138      4.4279      3.8440      3.4593      3.2609      3.2409      3.6554      3.9126      4.4371      5.2719    
  6.4511      7.9899      9.8843      12.112      14.631      17.369      20.217      23.042      25.713      28.141    
  30.296      32.208      33.915      35.384      36.627      37.664      38.452      38.852      38.688      37.842    
  36.315      34.231      31.795      29.260      26.907      24.917      23.305      22.022      20.972      20.043    
  19.122      18.108      16.921      15.520      13.919      12.185      10.418      8.7270      7.2084      5.9352    
  4.9483      4.2523      3.8233      3.6296      3.9999      4.0928      4.4714      5.1799      6.2639      7.7519    
  9.6526      11.957      14.638      17.637      20.850      24.120      27.266      30.121      32.575      34.589    
  36.068      36.910      37.191      37.129      36.958      36.806      36.646      36.366      35.862      35.085    
  34.039      32.766      31.365      30.018      28.907      28.014      27.257      26.532      25.725      24.719    
  23.413      21.744      19.713      17.395      14.932      12.490      10.225      8.2539      6.6528      5.4532    
  4.6428      4.1754      4.4979      4.3614      4.5464      5.0754      5.9949      7.3467      9.1544      11.424    
  14.146      17.281      20.744      24.383      27.989      31.333      34.222      36.514      37.933      38.227    
  37.428      35.881      34.121      32.659      31.802      31.615      31.993      32.758      33.683      34.508    
  35.007      35.103      34.935      34.763      34.616      34.405      33.999      33.241      31.978      30.107    
  27.614      24.600      21.264      17.855      14.604      11.689      9.2282      7.2892      5.8875      4.9828    
  5.2500      4.7755      4.7040      5.0059      5.7048      6.8453      8.4657      10.588      13.219      16.343    
  19.900      23.765      27.732      31.540      34.925      37.648      39.251      39.259      37.538      34.417    
  30.649      27.164      24.748      23.849      24.559      26.691      29.837      33.400      36.715      39.275    
  40.942      41.977      42.808      43.519      43.967      43.911      43.073      41.235      38.328      34.486    
  30.019      25.315      20.740      16.564      12.959      10.017      7.7768      6.2143      6.4010      5.4267    
  4.9995      5.0181      5.4523      6.3270      7.6844      9.5604      11.978      14.944      18.428      22.339    
  26.500      30.654      34.501      37.729      39.749      39.845      37.616      33.214      27.432      21.524    
  16.805      14.265      14.400      17.222      22.302      28.790      35.550      41.497      46.007      49.128    
  51.421      53.491      55.357      56.679      56.962      55.729      52.719      48.032      42.118      35.625    
  29.190      23.276      18.142      13.889      10.536      8.0633      8.1134      6.4379      5.5110      5.1625    
  5.2884      5.8634      6.9099      8.4666      10.573      13.258      16.515      20.288      24.447      28.769    
  32.951      36.650      39.240      39.797      37.621      32.557      25.232      17.021      9.6685      4.7480    
  3.3042      5.7568      11.897      20.842      31.101      40.961      49.132      55.228      59.753      63.628    
  67.449      70.915      73.273      73.633      71.314      66.165      58.688      49.870      40.824      32.428    
  25.159      19.152      14.363      10.713      10.529      7.9367      6.3336      5.5012      5.2601      5.5100    
  6.2238      7.4234      9.1572      11.471      14.383      17.865      21.834      26.125      30.464      34.506    
  37.692      38.991      37.434      32.503      24.488      14.637      4.8961     -2.6849     -6.4799     -5.5259    
 0.40505      10.680      23.726      37.352      49.529      59.221      66.656      72.895      79.025      85.242    
  90.629      93.821      93.501      88.945      80.405      69.088      56.713      44.870      34.561      26.117    
  19.440      14.308      13.739      10.019      7.5586      6.1049      5.4143      5.3042      5.6785      6.5187    
  7.8597      9.7559      12.245      15.328      18.963      23.041      27.349      31.567      35.254      37.436    
  36.954      32.954      25.299      14.880      3.5463     -6.4013     -12.849     -14.270     -9.8834     0.16604    
  14.580      31.019      46.853      60.265      70.946      79.898      88.540      97.687      106.68      113.78    
  116.96      114.66      106.44      93.324      77.482      61.404      47.006      35.188      25.971      18.957    
  17.775      12.727      9.2467      7.0355      5.7950      5.2715      5.2999      5.8016      6.7674      8.2391    
  10.274      12.903      16.112      19.843      23.955      28.197      32.215      35.268      36.139      33.734    
  27.489      17.778      6.0661     -5.4050     -14.248     -18.467     -16.716     -8.5147      5.4214      23.019    
  41.379      57.971      71.745      83.361      94.400      106.17      118.66      130.10      137.92      139.66    
  133.79      120.62      102.31      82.032      62.865      46.734      34.167      24.743      22.603      16.034    
  11.405      8.3213      6.4315      5.4314      5.0977      5.2833      5.9124      6.9921      8.5875      10.754    
  13.500      16.804      20.608      24.750      28.938      32.705      35.003      34.621      30.651      22.910    
  12.266     0.56577     -9.8521     -16.728     -18.232     -13.224     -1.6577      15.023      34.098      52.618    
  68.768      82.571      95.476      109.16      124.30      139.59      152.31      159.42      158.03      147.08    
  128.28      105.15      81.543      60.683      44.085      31.674      28.087      19.837      13.971      9.9384    
  7.3257      5.7939      5.0716      4.9482      5.2814      6.0288      7.2374      8.9714      11.261      14.120    
  17.560      21.515      25.776      30.022      33.604      35.363      34.188      29.424      21.266      10.893    
 0.22478     -8.5285     -13.243     -12.204     -4.5711      9.0852      26.671      45.284      62.534      77.644    
  91.582      106.14      122.56      140.35      157.04      169.51      174.01      167.80      151.10      127.33    
  100.97      76.031      55.315      39.559      33.917      23.928      16.804      11.804      8.4429      6.3491    
  5.2112      4.7710      4.8382      5.3179      6.2120      7.5714      9.4482      11.895      14.970      18.690    
  22.950      27.518      32.058      35.747      37.438      36.176      31.563      23.999      14.691      5.4366    
 -1.6700     -4.5742     -1.7471      7.2058      21.156      37.733      54.368      69.564      83.548      97.845    
  114.04      132.43      151.23      167.51      177.59      177.57      165.79      144.31      117.75      90.640    
  66.713      47.833      39.535      27.973      19.681      13.781      9.7066      7.0565      5.4911      4.7265    
  4.5451      4.8059      5.4538      6.5117      8.0469      10.142      12.890      16.368      20.577      25.391    
  30.567      35.710      39.901      42.078      41.433      37.674      31.193      23.091      15.052      9.1141    
  7.2365      10.681      19.415      31.979      46.123      59.964      72.957      86.007      100.65      117.79    
  136.53      154.35      168.06      173.72      168.32      151.99      128.22      101.65      76.439      55.467    
  44.155      31.507      22.309      15.679      10.999      7.8433      5.8698      4.7899      4.3715      4.4387    
  4.8904      5.7192      6.9917      8.8079      11.284      14.545      18.681      23.666      29.331      35.413    
  41.454      46.514      49.580      49.874      47.080      41.513      34.187      26.759      21.250      19.486    
  22.402      29.620      39.646      50.693      61.676      72.734      84.962      99.488      116.24      133.49    
  148.38      157.66      158.08      148.23      129.79      106.49      82.450      61.120      46.936      34.008    
  24.362      17.280      12.169      8.6127      6.2907      4.9291      4.2894      4.1758      4.4624      5.1179    
  6.1948      7.7962      10.058      13.144      17.203      22.294      28.338      35.132      42.379      49.543    
  55.620      59.553      60.517      58.151      52.763      45.433      37.901      32.142      29.728      31.257    
  36.205      43.318      51.381      59.913      69.368      80.675      94.206      109.07      123.24      133.87    
  138.19      134.22      122.05      103.93      83.288      63.567      47.274      35.031      25.533      18.366    
  13.060      9.2582      6.6862      5.0999      4.2676      3.9900      4.1325      4.6476      5.5719      7.0069    
  9.1042      12.051      16.034      21.179      27.506      34.903      43.123      51.749      60.075      66.946    
  71.187      71.939      68.942      62.723      54.593      46.370      39.866      36.338      36.137      38.748    
  43.238      48.868      55.524      63.659      73.642      85.149      97.010      107.23      113.44      113.62    
  107.03      94.607      78.715      62.193      45.058      34.355      25.620      18.770      13.540      9.6809    
  6.9846      5.2502      4.2711      3.8583      3.8764      4.2688      5.0621      6.3583      8.3192      11.146    
  15.047      20.203      26.729      34.635      43.773      53.757      63.889      73.134      80.104      83.536    
  82.739      77.838      69.811      60.261      51.000      43.575      38.894      37.110      37.789      40.306    
  44.245      49.579      56.372      64.496      73.381      81.834      88.158      90.621      88.133      80.770    
  69.827      57.290      40.727      32.081      24.584      18.416      13.529      9.8075      7.1236      5.3318    
  4.2647      3.7551      3.6726      3.9565      4.6297      5.7959      7.6245      10.327      14.129      19.249    
  25.885      34.191      44.184      55.590      67.679      79.235      88.716      94.545      95.614      91.750    
  83.780      73.263      62.029      51.726      43.511      37.939      35.024      34.435      35.753      38.649    
  42.853      48.161      54.250      60.472      65.785      68.938      68.895      65.273      58.558      49.919    
  35.085      28.592      22.573      17.342      13.015      9.6045      7.0654      5.3103      4.2182      3.6531    
  3.4982      3.6922      4.2541      5.2880      6.9702      9.5239      13.189      18.211      24.854      33.408    
  44.109      56.902      71.149      85.462      97.872      106.31      109.28      106.27      98.039      86.290    
  73.094      60.306      49.234      40.584      34.584      31.140      29.967      30.646      32.740      35.887    
  39.767      43.978      47.922      50.813      51.856      50.545      46.898      41.462      28.995      24.421    
  19.874      15.684      12.054      9.0852      6.8027      5.1702      4.1115      3.5302      3.3318      3.4575    
  3.9194      4.8179      6.3328      8.6969      12.167      17.009      23.531      32.131      43.263      57.190    
  73.531      90.897      106.93      118.86      124.44      122.69      114.20      100.90      85.307      69.780    
  55.947      44.620      36.029      30.111      26.637      25.246      25.492      26.927      29.157      31.826    
  34.541      36.813      38.108      37.985      36.267      33.123      23.132      20.081      16.825      13.645    
  10.757      8.3046      6.3565      4.9140      3.9391      3.3749      3.1567      3.2342      3.6114      4.3780    
  5.7078      7.8371      11.038      15.600      21.853      30.251      41.421      55.963      73.922      94.154    
  114.12      130.42      139.85      140.55      132.63      118.04      99.824      81.093      64.119      50.024    
  39.026      30.916      25.383      22.093      20.651      20.612      21.540      23.052      24.801      26.437    
  27.603      27.970      27.325      25.651      17.902      15.961      13.740      11.448      9.2701      7.3480    
  5.7691      4.5600      3.7080      3.1864      2.9632      3.0081      3.3196      3.9654      5.1012      6.9596    
  9.8223      13.995      19.818      27.754      38.511      52.958      71.624      93.889      117.41      138.40    
  152.75      157.41      151.54      136.85      116.61      94.647      74.136      56.873      43.310      33.112    
  25.749      20.779      17.821      16.465      16.273      16.836      17.805      18.877      19.780      20.270    
  20.156      19.353      13.483      12.307      10.863      9.2974      7.7431      6.3139      5.0978      4.1379    
  3.4330      2.9713      2.7518      2.7742      3.0372      3.5788      4.5251      6.0964      8.5722      12.260    
  17.499      24.738      34.667      48.269      66.479      89.357      115.18      140.27      160.05      170.10    
  168.04      154.83      133.96      109.58      85.694      65.050      48.685      36.342      27.282      20.849    
  16.579      14.066      12.879      12.607      12.899      13.465      14.059      14.484      14.585      14.263    
  9.9237      9.2519      8.3615      7.3507      6.3035      5.2968      4.4074      3.6842      3.1312      2.7411    
  2.5338      2.5385      2.7621      3.2175      3.9947      5.2867      7.3545      10.493      15.036      21.403    
  30.199      42.351      58.993      80.810      106.97      134.45      158.80      174.81      178.35      168.76    
  149.03      123.86      97.636      74.001      54.838      40.293      29.593      21.868      16.485      12.979    
  10.926      9.9251      9.6267      9.7333      10.003      10.263      10.395      10.304      7.1937      6.8379    
  6.3232      5.7071      5.0409      4.3719      3.7560      3.2367      2.8225      2.5108      2.3275      2.3169    
  2.5007      2.8850      3.5242      4.5653      6.2326      8.8018      12.596      17.995      25.495      35.854    
  50.162      69.469      93.825      121.27      147.88      168.70      178.50      174.62      158.50      134.66    
  107.97      82.534      61.125      44.566      32.329      23.455      17.129      12.790      10.009      8.3967    
  7.5976      7.3006      7.2623      7.3218      7.3819      7.3637      5.2092      5.0341      4.7580      4.4033    
  4.0022      3.5850      3.1838      2.8279      2.5312      2.2988      2.1513      2.1305      2.2726      2.5944    
  3.1251      3.9551      5.2576      7.2808      10.330      14.745      20.921      29.416      41.106      57.068    
  77.938      102.90      129.02      151.99      166.78      169.33      159.06      139.11      114.29      88.941    
  66.501      48.565      35.099      25.263      18.162      13.151      9.7797      7.6662      6.4493      5.8118    
  5.5097      5.3814      5.3310      5.2932      3.8380      3.7498      3.6122      3.4208      3.1937      2.9514    
  2.7087      2.4804      2.2819      2.1240      2.0201      1.9999      2.1055      2.3686      2.8085      3.4684    
  4.4642      6.0013      8.3539      11.827      16.744      23.501      32.703      45.206      61.819      82.552    
  105.80      128.13      145.24      153.00      149.26      135.21      114.55      91.472      69.707      51.499    
  37.413      26.944      19.285      13.771      9.9431      7.4257      5.8674      4.9551      4.4432      4.1605    
  4.0018      3.9081      2.9219      2.8632      2.7972      2.7050      2.5898      2.4634      2.3331      2.2056    
  2.0920      2.0026      1.9459      1.9409      2.0241      2.2331      2.5889      3.1119      3.8675      5.0025    
  6.7421      9.3577      13.132      18.362      25.429      34.884      47.393      63.331      82.110      101.65    
  118.56      129.13      130.76      123.03      107.98      89.010      69.692      52.568      38.734      28.140    
  20.223      14.407      10.258      7.4334      5.6110      4.4884      3.8147      3.4093      3.1603      3.0093    
  2.3124      2.2556      2.2227      2.1900      2.1488      2.1013      2.0523      2.0064      1.9686      1.9442    
  1.9382      1.9621      2.0404      2.2054      2.4831      2.8916      3.4646      4.2886      5.5252      7.4022    
  10.176      14.097      19.411      26.428      35.556      47.166      61.190      76.626      91.333      102.44    
  107.36      104.83      95.504      81.626      66.063      51.259      38.619      28.520      20.733      14.858    
  10.550      7.5286      5.5196      4.2429      3.4466      2.9446      2.6239      2.4248      1.9017      1.8376    
  1.8190      1.8222      1.8322      1.8442      1.8598      1.8822      1.9131      1.9526      2.0017      2.0650    
  2.1547      2.2926      2.5048      2.8143      3.2434      3.8363      4.6911      5.9766      7.9124      10.723    
  14.603      19.734      26.319      34.572      44.551      55.848      67.319      77.119      83.198      84.083    
  79.526      70.621      59.310      47.589      36.889      27.872      20.625      14.972      10.701      7.6131    
  5.4969      4.1136      3.2281      2.6551      2.2791      2.0394      1.6304      1.5561      1.5438      1.5698    
  1.6174      1.6782      1.7496      1.8322      1.9260      2.0289      2.1371      2.2482      2.3641      2.4956    
  2.6622      2.8883      3.1971      3.6151      4.1951      5.0421      6.3189      8.2189      10.923      14.574    
  19.280      25.120      32.104      40.044      48.374      56.065      61.771      64.259      62.909      58.005    
  50.611      42.111      33.716      26.180      19.812      14.648      10.617      7.6079      5.4770      4.0412    
  3.1006      2.4812      2.0656      1.7922      1.4806      1.4199      1.4127      1.4376      1.4813      1.5387    
  1.6079      1.6875      1.7764      1.8728      1.9731      2.0728      2.1680      2.2590      2.3539      2.4701    
  2.6307      2.8583      3.1757      3.6173      4.2482      5.1705      6.5078      8.3731      10.834      13.892    
  17.474      21.427      25.498      29.310      32.376      34.200      34.434      33.013      30.185      26.414    
  22.218      18.043      14.206      10.893      8.1865      6.0871      4.5392      3.4490      2.7037      2.1967    
  1.8491      1.6176      1.3992      1.3330      1.3281      1.3656      1.4313      1.5182      1.6243      1.7475    
  1.8840      2.0293      2.1792      2.3271      2.4644      2.5831      2.6822      2.7703      2.8662      2.9940    
  3.1784      3.4447      3.8282      4.3874      5.2080      6.3881      8.0073      10.097      12.623      15.478    
  18.485      21.389      23.879      25.620      26.335      25.888      24.336      21.914      18.955      15.799    
  12.734      9.9699      7.6364      5.7835      4.3879      3.3753      2.6542      2.1435      1.7856      1.5446    
  1.4122      1.3508      1.3529      1.4035      1.4894      1.6030      1.7409      1.9011      2.0794      2.2704    
  2.4682      2.6648      2.8489      3.0074      3.1303      3.2152      3.2717      3.3207      3.3901      3.5079    
  3.7005      4.0012      4.4596      5.1430      6.1217      7.4462      9.1234      11.100      13.257      15.416    