unknown system                          
   1.00000000000000     
     4.913700    0.000000    0.000000
    -2.456850    4.255389    0.000000
     0.000000    0.000000    5.405130
   Si   O 
     3     6
Direct
  0.469800  0.020000  0.666670
  0.000000  0.469800  0.333330
  0.530200  0.530200  0.000000
  0.414500  0.266200  0.785600
  0.733800  0.148300  0.452270
  0.851700  0.585500  0.118930
  0.148300  0.733800  0.547730
  0.266200  0.414500  0.214400
  0.585500  0.851700  0.881070
 
   48   48   56
 0.14709715552E+01 0.13862157048E+01 0.13764772137E+01 0.14188820724E+01 0.14958368322E+01
 0.15971500373E+01 0.17178932575E+01 0.18557555419E+01 0.20089333523E+01 0.21739451117E+01
 0.23443192504E+01 0.25117193878E+01 0.26694093479E+01 0.28167241932E+01 0.29628011534E+01
 0.31269144136E+01 0.33339784006E+01 0.36099987197E+01 0.39873250596E+01 0.45230803724E+01
 0.53183594861E+01 0.65181692067E+01 0.82845120959E+01 0.10756967407E+02 0.14024207931E+02
 0.18115617125E+02 0.22995620946E+02 0.28529048583E+02 0.34406085652E+02 0.40069110945E+02
 0.44729923413E+02 0.47544005578E+02 0.47903111022E+02 0.45692859997E+02 0.41350292937E+02
 0.35679849427E+02 0.29547228358E+02 0.23631832401E+02 0.18340689753E+02 0.13857539854E+02
 0.10232495313E+02 0.74408813821E+01 0.54016430115E+01 0.39842030421E+01 0.30297517975E+01
 0.23878642241E+01 0.19488709557E+01 0.16524033667E+01 0.14050920807E+01 0.13138372397E+01
 0.13063062069E+01 0.13624637180E+01 0.14640214189E+01 0.15994682029E+01 0.17633029609E+01
 0.19522347367E+01 0.21627349576E+01 0.23900135697E+01 0.26264343073E+01 0.28601594819E+01
 0.30767518743E+01 0.32642114612E+01 0.34189961383E+01 0.35500517758E+01 0.36785803510E+01
 0.38331380985E+01 0.40445693910E+01 0.43493650693E+01 0.48043835806E+01 0.55014584337E+01
 0.65635989944E+01 0.81174393199E+01 0.10257396013E+02 0.13021515381E+02 0.16381699928E+02
 0.20232788133E+02 0.24367885494E+02 0.28450569028E+02 0.32017496982E+02 0.34545468423E+02
 0.35585615503E+02 0.34916700897E+02 0.32636034384E+02 0.29128193535E+02 0.24925410743E+02
 0.20542321742E+02 0.16371068403E+02 0.12661557352E+02 0.95489128109E+01 0.70803512567E+01
 0.52278750429E+01 0.39023045828E+01 0.29812461421E+01 0.23444456575E+01 0.19006482300E+01
 0.15960048422E+01 0.14116076795E+01 0.13235155288E+01 0.13224472017E+01 0.13924112593E+01
 0.15164849729E+01 0.16825303770E+01 0.18847048512E+01 0.21204211036E+01 0.23868759443E+01
 0.26792042496E+01 0.29887887599E+01 0.33011781318E+01 0.35959969748E+01 0.38508452660E+01
 0.40481545616E+01 0.41822715514E+01 0.42639200941E+01 0.43192883464E+01 0.43834399985E+01
 0.44936183783E+01 0.46907190898E+01 0.50298163430E+01 0.55888852733E+01 0.64629799991E+01
 0.77425424087E+01 0.94861839345E+01 0.11698262197E+02 0.14313858573E+02 0.17189745096E+02
 0.20102664997E+02 0.22760695360E+02 0.24835727749E+02 0.26022286483E+02 0.26114846864E+02
 0.25074888984E+02 0.23049573111E+02 0.20325513215E+02 0.17242555731E+02 0.14115220215E+02
 0.11191317112E+02 0.86410977905E+01 0.65556935541E+01 0.49481592454E+01 0.37662084806E+01
 0.29209317362E+01 0.23205762933E+01 0.18940748365E+01 0.15981560334E+01 0.14687306275E+01
 0.13961013385E+01 0.14097339444E+01 0.14970580336E+01 0.16442347437E+01 0.18400092651E+01
 0.20783535468E+01 0.23581808887E+01 0.26800262416E+01 0.30415571438E+01 0.34341016184E+01
 0.38408306377E+01 0.42364080336E+01 0.45890519383E+01 0.48665698717E+01 0.50457583096E+01
 0.51213576022E+01 0.51099695355E+01 0.50467826169E+01 0.49769090220E+01 0.49467420391E+01
 0.50016452679E+01 0.51917255763E+01 0.55788224399E+01 0.62333347665E+01 0.72161411011E+01
 0.85536958682E+01 0.10219752689E+02 0.12129591859E+02 0.14142690112E+02 0.16070244455E+02
 0.17692376908E+02 0.18791952046E+02 0.19201313960E+02 0.18845002301E+02 0.17759490242E+02
 0.16082104736E+02 0.14015831014E+02 0.11784929293E+02 0.95955244799E+01 0.76086401625E+01
 0.59260441285E+01 0.45866683585E+01 0.35734435935E+01 0.28315237978E+01 0.22942918490E+01
 0.19068392056E+01 0.16364994116E+01 0.15599421248E+01 0.15142547290E+01 0.15520753929E+01
 0.16633680504E+01 0.18369295322E+01 0.20634118979E+01 0.23380416077E+01 0.26618899310E+01
 0.30396426830E+01 0.34739210183E+01 0.39591932982E+01 0.44780297869E+01 0.50000807653E+01
 0.54837971152E+01 0.58822039993E+01 0.61531752537E+01 0.62713762727E+01 0.62370805059E+01
 0.60781585088E+01 0.58440905797E+01 0.55940720269E+01 0.53851100507E+01 0.52670756430E+01
 0.52860164202E+01 0.54884586013E+01 0.59179100795E+01 0.66029239614E+01 0.75438574667E+01
 0.87039759441E+01 0.10004907968E+02 0.11326894526E+02 0.12519177262E+02 0.13424308305E+02
 0.13910321659E+02 0.13898116828E+02 0.13375695781E+02 0.12398854959E+02 0.11080043120E+02
 0.95660227962E+01 0.80084442743E+01 0.65370097089E+01 0.52434313955E+01 0.41763041793E+01
 0.33429142038E+01 0.27175795965E+01 0.22580409799E+01 0.19252197780E+01 0.16955715079E+01
 0.16755118771E+01 0.16669488609E+01 0.17378007857E+01 0.18805379631E+01 0.20857073631E+01
 0.23458038306E+01 0.26583995863E+01 0.30273969292E+01 0.34617746668E+01 0.39707603827E+01
 0.45557640227E+01 0.52023672726E+01 0.58764850527E+01 0.65263221183E+01 0.70892746364E+01
 0.75027990489E+01 0.77182188290E+01 0.77141558472E+01 0.75041639331E+01 0.71348716006E+01
 0.66755062331E+01 0.62029551703E+01 0.57872542745E+01 0.54822226604E+01 0.53244752135E+01
 0.53391848405E+01 0.55451323951E+01 0.59515923081E+01 0.65474325898E+01 0.72908096409E+01
 0.81076135604E+01 0.88999376741E+01 0.95607690259E+01 0.99913368399E+01 0.10118753863E+02
 0.99102673661E+01 0.93794172776E+01 0.85820540741E+01 0.76043424372E+01 0.65464428397E+01
 0.55048191182E+01 0.45562528529E+01 0.37477087307E+01 0.30951573931E+01 0.25907287299E+01
 0.22142615186E+01 0.19446377521E+01 0.17672529219E+01 0.18101608383E+01 0.18484235020E+01
 0.19609362674E+01 0.21425393499E+01 0.23859229350E+01 0.26850334378E+01 0.30389172779E+01
 0.34541474709E+01 0.39447834066E+01 0.45280566607E+01 0.52148211175E+01 0.59978260249E+01
 0.68437289719E+01 0.76927039086E+01 0.84654648306E+01 0.90760697514E+01 0.94489080606E+01
 0.95363777761E+01 0.93314357648E+01 0.88705646875E+01 0.82268313806E+01 0.74951232139E+01
 0.67723382058E+01 0.61379351443E+01 0.56430853971E+01 0.53129182847E+01 0.51563868745E+01
 0.51729637156E+01 0.53514871394E+01 0.56658951715E+01 0.60737233654E+01 0.65177714695E+01
 0.69296793373E+01 0.72376315598E+01 0.73799299090E+01 0.73192565171E+01 0.70491875937E+01
 0.65912392428E+01 0.59884617257E+01 0.52995882776E+01 0.45906772832E+01 0.39216973247E+01
 0.33336767946E+01 0.28450273669E+01 0.24579130079E+01 0.21672652694E+01 0.19662732189E+01
 0.18486755762E+01 0.19606544392E+01 0.20544959024E+01 0.22181638581E+01 0.24478171702E+01
 0.27384766870E+01 0.30851337281E+01 0.34866089698E+01 0.39507698543E+01 0.44967574792E+01
 0.51506091483E+01 0.59343952770E+01 0.68522796246E+01 0.78782153310E+01 0.89500346126E+01
 0.99735521619E+01 0.10837223777E+02 0.11433846598E+02 0.11683335281E+02 0.11550772509E+02
 0.11055341827E+02 0.10267494375E+02 0.92945299198E+01 0.82585238121E+01 0.72728941137E+01
 0.64234535573E+01 0.57580492448E+01 0.52872652549E+01 0.49956298536E+01 0.48573585245E+01
 0.48470221561E+01 0.49392924032E+01 0.51015333831E+01 0.52892195786E+01 0.54505555713E+01
 0.55376540852E+01 0.55167903787E+01 0.53730051548E+01 0.51096281087E+01 0.47454616596E+01
 0.43111227280E+01 0.38444047337E+01 0.33843078665E+01 0.29644316050E+01 0.26078295420E+01
 0.23257753318E+01 0.21209602492E+01 0.19925401944E+01 0.19394295380E+01 0.21241579407E+01
 0.22804639675E+01 0.25055195251E+01 0.27959602238E+01 0.31474937268E+01 0.35549925504E+01
 0.40159425585E+01 0.45373405970E+01 0.51407252722E+01 0.58597721097E+01 0.67294556276E+01
 0.77697488777E+01 0.89684684954E+01 0.10269102545E+02 0.11569734129E+02 0.12735982370E+02
 0.13625349783E+02 0.14116575668E+02 0.14136659558E+02 0.13678268632E+02 0.12801801230E+02
 0.11621616737E+02 0.10282278088E+02 0.89320687271E+01 0.76976909540E+01 0.66632184277E+01
 0.58601738478E+01 0.52753594224E+01 0.48727758638E+01 0.46149231460E+01 0.44709219156E+01
 0.44125642392E+01 0.44086648325E+01 0.44245250229E+01 0.44255333943E+01 0.43820984986E+01
 0.42749724585E+01 0.40990468192E+01 0.38622124290E+01 0.35796707789E+01 0.32694145591E+01
 0.29525229351E+01 0.26541492462E+01 0.23993639117E+01 0.22057544717E+01 0.20805096574E+01
 0.20246892647E+01 0.20388433083E+01 0.22964953685E+01 0.25204541212E+01 0.28167834087E+01
 0.31832368104E+01 0.36144382523E+01 0.41031561703E+01 0.46440748858E+01 0.52405111261E+01
 0.59117581510E+01 0.66952826951E+01 0.76384292311E+01 0.87798637913E+01 0.10127188852E+02
 0.11639004073E+02 0.13217481530E+02 0.14714913534E+02 0.15955611645E+02 0.16770582451E+02
 0.17036262938E+02 0.16704605172E+02 0.15814246288E+02 0.14480258313E+02 0.12867717337E+02
 0.11158027049E+02 0.95165158011E+01 0.80674473775E+01 0.68801506067E+01 0.59681540499E+01
 0.53012058042E+01 0.48264670975E+01 0.44906422997E+01 0.42533562218E+01 0.40872744380E+01
 0.39696997840E+01 0.38756604004E+01 0.37788096578E+01 0.36579190107E+01 0.35021561290E+01
 0.33112605329E+01 0.30924087684E+01 0.28575938665E+01 0.26227970391E+01 0.24071713195E+01
 0.22303629084E+01 0.21085100560E+01 0.20514522844E+01 0.20631230466E+01 0.21445084458E+01
 0.24710293080E+01 0.27661007114E+01 0.31420415973E+01 0.35992533994E+01 0.41319075126E+01
 0.47293485496E+01 0.53806442183E+01 0.60818056148E+01 0.68451316701E+01 0.77058498130E+01
 0.87182133647E+01 0.99379446917E+01 0.11396691982E+02 0.13078004035E+02 0.14901839711E+02
 0.16722116257E+02 0.18341695549E+02 0.19546630923E+02 0.20153550892E+02 0.20055687965E+02
 0.19251068022E+02 0.17842385580E+02 0.16009232968E+02 0.13964769379E+02 0.11913897255E+02
 0.10024109987E+02 0.84088375496E+01 0.71187995710E+01 0.61430655566E+01 0.54258708968E+01
 0.48965332054E+01 0.44965582764E+01 0.41886990532E+01 0.39490723527E+01 0.37564736865E+01
 0.35890468799E+01 0.34266003223E+01 0.32532547663E+01 0.30598732938E+01 0.28473200467E+01
 0.26276578491E+01 0.24199648159E+01 0.22434012669E+01 0.21134269487E+01 0.20422150344E+01
 0.20390666829E+01 0.21090173629E+01 0.22529300876E+01 0.26395802497E+01 0.30052646622E+01
 0.34658342384E+01 0.40253916605E+01 0.46800262546E+01 0.54163527999E+01 0.62156248187E+01
 0.70629683322E+01 0.79590339251E+01 0.89293064784E+01 0.10025050467E+02 0.11311360576E+02
 0.12843025144E+02 0.14635191727E+02 0.16638576412E+02 0.18727084784E+02 0.20702869049E+02
 0.22322529366E+02 0.23344861495E+02 0.23590833754E+02 0.22994625216E+02 0.21622771070E+02
 0.19652997420E+02 0.17325405436E+02 0.14889057408E+02 0.12560512121E+02 0.10497907251E+02
 0.87881893204E+01 0.74473572631E+01 0.64351398856E+01 0.56808055131E+01 0.51103594183E+01
 0.46647392928E+01 0.43047744067E+01 0.40061015079E+01 0.37508031484E+01 0.35216315738E+01
 0.33014461022E+01 0.30769849689E+01 0.28437400828E+01 0.26084963877E+01 0.23879131730E+01
 0.22038722033E+01 0.20776562405E+01 0.20251014788E+01 0.20543414514E+01 0.21669269487E+01
 0.23617504925E+01 0.27954000893E+01 0.32234435340E+01 0.37671750299E+01 0.44347772103E+01
 0.52258420569E+01 0.61265394133E+01 0.71114978405E+01 0.81535232935E+01 0.92369665098E+01
 0.10369435712E+02 0.11587759904E+02 0.12953694455E+02 0.14535640951E+02 0.16378854316E+02
 0.18473875534E+02 0.20733546013E+02 0.22984804324E+02 0.24980792662E+02 0.26440193885E+02
 0.27112726647E+02 0.26850899344E+02 0.25655893440E+02 0.23675920296E+02 0.21161454340E+02
 0.18401096981E+02 0.15662701539E+02 0.13153686857E+02 0.11003420226E+02 0.92635016321E+01
 0.79193676408E+01 0.69089530158E+01 0.61471116560E+01 0.55519861779E+01 0.50637185873E+01
 0.46472972239E+01 0.42827705204E+01 0.39550863451E+01 0.36512783101E+01 0.33618364474E+01
 0.30809937534E+01 0.28074197033E+01 0.25486061585E+01 0.23248190199E+01 0.21646723710E+01
 0.20928811498E+01 0.21208939537E+01 0.22485102128E+01 0.24728347788E+01 0.29372544674E+01
 0.34084192748E+01 0.40233377878E+01 0.47945954859E+01 0.57256037014E+01 0.68045487916E+01
 0.80035943088E+01 0.92854648953E+01 0.10615951687E+02 0.11978131028E+02 0.13383422901E+02
 0.14874562368E+02 0.16516111225E+02 0.18371501861E+02 0.20471278038E+02 0.22780948644E+02
 0.25177199689E+02 0.27441923348E+02 0.29285476467E+02 0.30405732944E+02 0.30571298338E+02
 0.29695718135E+02 0.27866199695E+02 0.25313918847E+02 0.22345686304E+02 0.19271765373E+02
 0.16353933509E+02 0.13777583691E+02 0.11641222674E+02 0.99592957252E+01 0.86789235118E+01
 0.77088322369E+01 0.69516832581E+01 0.63278241960E+01 0.57838478065E+01 0.52889595030E+01
 0.48274200436E+01 0.43926311288E+01 0.39829453537E+01 0.35981664895E+01 0.32386520891E+01
 0.29090858916E+01 0.26237857500E+01 0.24066238488E+01 0.22830414978E+01 0.22702802236E+01
 0.23743798509E+01 0.25957360236E+01 0.30732317284E+01 0.35560006102E+01 0.42164367462E+01
 0.50721647682E+01 0.61309777081E+01 0.73849831565E+01 0.88081504983E+01 0.10358499434E+02
 0.11986560423E+02 0.13648944843E+02 0.15322651238E+02 0.17015205013E+02 0.18766325020E+02
 0.20637106467E+02 0.22685141343E+02 0.24929527241E+02 0.27314686632E+02 0.29684596813E+02
 0.31782106159E+02 0.33288618201E+02 0.33905997861E+02 0.33453570887E+02 0.31932109264E+02
 0.29520910656E+02 0.26516650120E+02 0.23253951518E+02 0.20041338800E+02 0.17119749309E+02
 0.14637843430E+02 0.12644728930E+02 0.11104842322E+02 0.99300554819E+01 0.90141289355E+01
 0.82580398481E+01 0.75847338760E+01 0.69454544936E+01 0.63180377661E+01 0.56991156793E+01
 0.50959310792E+01 0.45217098032E+01 0.39927654397E+01 0.35248352271E+01 0.31308963658E+01
 0.28232954161E+01 0.26170130387E+01 0.25283441237E+01 0.25698804101E+01 0.27490282858E+01
 0.32216031630E+01 0.36742038324E+01 0.43403258052E+01 0.52441268821E+01 0.63994133335E+01
 0.78038135204E+01 0.94360687648E+01 0.11255965778E+02 0.13207296152E+02 0.15225163125E+02
 0.17248674061E+02 0.19237537790E+02 0.21186566493E+02 0.23129307793E+02 0.25125070641E+02
 0.27230323551E+02 0.29459761092E+02 0.31744665743E+02 0.33898727498E+02 0.35631568178E+02
 0.36627120735E+02 0.36632259015E+02 0.35543501127E+02 0.33448785220E+02 0.30606716959E+02
 0.27365554828E+02 0.24061022480E+02 0.20967172767E+02 0.18268847410E+02 0.16052028685E+02
 0.14311076321E+02 0.12971982988E+02 0.11924634175E+02 0.11053545833E+02 0.10260046391E+02
 0.94743267266E+01 0.86588504540E+01 0.78058886486E+01 0.69320190884E+01 0.60706519740E+01
 0.52620845504E+01 0.45425144261E+01 0.39368052027E+01 0.34586141177E+01 0.31155048798E+01
 0.29133307760E+01 0.28578355350E+01 0.29563694110E+01 0.34068764834E+01 0.37835491202E+01
 0.44051964831E+01 0.53051566744E+01 0.65058233685E+01 0.80122711984E+01 0.98104631776E+01
 0.11867519203E+02 0.14130274699E+02 0.16523324571E+02 0.18954168141E+02 0.21331189026E+02
 0.23589248354E+02 0.25709151998E+02 0.27720373762E+02 0.29685677082E+02 0.31668963104E+02
 0.33658373344E+02 0.35548741814E+02 0.37172400024E+02 0.38294812211E+02 0.38662568888E+02
 0.38093419190E+02 0.36555407762E+02 0.34188146425E+02 0.31264607849E+02 0.28129980098E+02
 0.25117503886E+02 0.22433545637E+02 0.20183543147E+02 0.18385622728E+02 0.16982483220E+02
 0.15868172942E+02 0.14921966126E+02 0.14033463529E+02 0.13114175334E+02 0.12104656556E+02
 0.10983490877E+02 0.97715788607E+01 0.85230260499E+01 0.73059440176E+01 0.61852459528E+01
 0.52137505645E+01 0.44278537321E+01 0.38439875996E+01 0.34592797277E+01 0.32609099038E+01
 0.32408678250E+01 0.36553513789E+01 0.39126022727E+01 0.44370532053E+01 0.52718902962E+01
 0.64510726639E+01 0.79899433791E+01 0.98843240729E+01 0.12112360562E+02 0.14631480550E+02
 0.17369190191E+02 0.20217156658E+02 0.23041703878E+02 0.25713312518E+02 0.28141450730E+02
 0.30296109069E+02 0.32208181886E+02 0.33914692840E+02 0.35383959914E+02 0.36626926780E+02
 0.37664439466E+02 0.38451677175E+02 0.38851665487E+02 0.38688433540E+02 0.37842194804E+02
 0.36315107700E+02 0.34231017418E+02 0.31795090774E+02 0.29260230790E+02 0.26907153006E+02
 0.24916601567E+02 0.23305166291E+02 0.22021675763E+02 0.20971937475E+02 0.20042880737E+02
 0.19121949132E+02 0.18107791197E+02 0.16920744421E+02 0.15519961778E+02 0.13918958419E+02
 0.12184749688E+02 0.10418007256E+02 0.87270484368E+01 0.72084375331E+01 0.59352371306E+01
 0.49483177354E+01 0.42523046463E+01 0.38233003525E+01 0.36296318233E+01 0.39999234693E+01
 0.40928331216E+01 0.44714077693E+01 0.51799312874E+01 0.62638670990E+01 0.77519262886E+01
 0.96525730696E+01 0.11957140307E+02 0.14638105104E+02 0.17637206137E+02 0.20849523251E+02
 0.24119907859E+02 0.27265752529E+02 0.30120735769E+02 0.32575244894E+02 0.34588691127E+02
 0.36067924673E+02 0.36910200574E+02 0.37190996369E+02 0.37128586649E+02 0.36958367157E+02
 0.36805678823E+02 0.36645846192E+02 0.36366328452E+02 0.35861894780E+02 0.35084836803E+02
 0.34038908384E+02 0.32766166970E+02 0.31364986332E+02 0.30017734409E+02 0.28907418447E+02
 0.28014232764E+02 0.27256636051E+02 0.26532381473E+02 0.25725410563E+02 0.24718963609E+02
 0.23412546626E+02 0.21743738565E+02 0.19712536070E+02 0.17395105613E+02 0.14931725654E+02
 0.12490079432E+02 0.10224794366E+02 0.82538648378E+01 0.66527501555E+01 0.54532319091E+01
 0.46428148853E+01 0.41754095999E+01 0.44978980854E+01 0.43614276712E+01 0.45464435952E+01
 0.50753769484E+01 0.59948662652E+01 0.73466544475E+01 0.91543811317E+01 0.11424261671E+02
 0.14145645231E+02 0.17280699646E+02 0.20743570604E+02 0.24382887138E+02 0.27988756471E+02
 0.31332811293E+02 0.34221725072E+02 0.36513697273E+02 0.37933171279E+02 0.38227354332E+02
 0.37428167930E+02 0.35880510234E+02 0.34120562532E+02 0.32658988557E+02 0.31802474855E+02
 0.31614616465E+02 0.31993357925E+02 0.32758339713E+02 0.33682888179E+02 0.34507872413E+02
 0.35007405677E+02 0.35102725294E+02 0.34934562991E+02 0.34762748742E+02 0.34616333913E+02
 0.34405410631E+02 0.33999454482E+02 0.33240886482E+02 0.31978071800E+02 0.30107256428E+02
 0.27614384525E+02 0.24599581887E+02 0.21263573846E+02 0.17854519126E+02 0.14604084823E+02
 0.11689176338E+02 0.92282403292E+01 0.72891880569E+01 0.58874994438E+01 0.49828367799E+01
 0.52500179774E+01 0.47754934408E+01 0.47039767439E+01 0.50059361887E+01 0.57047917299E+01
 0.68453392078E+01 0.84657411214E+01 0.10588210973E+02 0.13219153024E+02 0.16342594792E+02
 0.19900182072E+02 0.23765367958E+02 0.27732290556E+02 0.31539675716E+02 0.34925400722E+02
 0.37648493366E+02 0.39250562474E+02 0.39259416526E+02 0.37538122584E+02 0.34417291082E+02
 0.30649444924E+02 0.27163597352E+02 0.24748048879E+02 0.23849350712E+02 0.24558673375E+02
 0.26690678054E+02 0.29836552672E+02 0.33399824064E+02 0.36715144038E+02 0.39275252605E+02
 0.40941659987E+02 0.41976733205E+02 0.42807680966E+02 0.43518836602E+02 0.43966533969E+02
 0.43910626335E+02 0.43073492782E+02 0.41235097980E+02 0.38327926403E+02 0.34486226303E+02
 0.30018563797E+02 0.25314941339E+02 0.20739622235E+02 0.16564101916E+02 0.12958707817E+02
 0.10017458007E+02 0.77767548294E+01 0.62142717044E+01 0.64009722900E+01 0.54266706885E+01
 0.49995163769E+01 0.50180802424E+01 0.54522513572E+01 0.63269510481E+01 0.76844255036E+01
 0.95604059976E+01 0.11978446930E+02 0.14944245501E+02 0.18428113601E+02 0.22338595893E+02
 0.26500016256E+02 0.30654324737E+02 0.34500761661E+02 0.37729195459E+02 0.39749211696E+02
 0.39845399662E+02 0.37616434405E+02 0.33214325042E+02 0.27432363634E+02 0.21524232191E+02
 0.16804886736E+02 0.14265451750E+02 0.14400457434E+02 0.17222235868E+02 0.22301926820E+02
 0.28790365413E+02 0.35550368475E+02 0.41496707119E+02 0.46007353764E+02 0.49128228569E+02
 0.51421165580E+02 0.53490588015E+02 0.55356904817E+02 0.56679063242E+02 0.56962285251E+02
 0.55728564992E+02 0.52718768671E+02 0.48031708499E+02 0.42117781847E+02 0.35625386858E+02
 0.29189535243E+02 0.23276300413E+02 0.18142442024E+02 0.13888737197E+02 0.10536104812E+02
 0.80633160003E+01 0.81133910199E+01 0.64379118803E+01 0.55110047691E+01 0.51624752375E+01
 0.52884082326E+01 0.58634425780E+01 0.69099361022E+01 0.84666485197E+01 0.10573463977E+02
 0.13257817788E+02 0.16515096311E+02 0.20288361586E+02 0.24447102948E+02 0.28769080622E+02
 0.32950979973E+02 0.36650403758E+02 0.39239518167E+02 0.39796502164E+02 0.37621063240E+02
 0.32557176922E+02 0.25231525888E+02 0.17021153561E+02 0.96684611433E+01 0.47479728924E+01
 0.33041831633E+01 0.57568227780E+01 0.11896882521E+02 0.20842246278E+02 0.31100630049E+02
 0.40960875170E+02 0.49132089115E+02 0.55227896574E+02 0.59753348825E+02 0.63628371522E+02
 0.67448506446E+02 0.70915062268E+02 0.73273202092E+02 0.73633277903E+02 0.71314472664E+02
 0.66165454742E+02 0.58687588907E+02 0.49869926512E+02 0.40823806458E+02 0.32427565561E+02
 0.25159463379E+02 0.19152269476E+02 0.14363391592E+02 0.10712709122E+02 0.10528836914E+02
 0.79366703655E+01 0.63335689791E+01 0.55011513445E+01 0.52601073948E+01 0.55100474983E+01
 0.62237816163E+01 0.74234135302E+01 0.91571508757E+01 0.11471438108E+02 0.14383039031E+02
 0.17864882228E+02 0.21834437978E+02 0.26124861147E+02 0.30463784721E+02 0.34506009538E+02
 0.37691568292E+02 0.38990801311E+02 0.37434289530E+02 0.32503463123E+02 0.24487798786E+02
 0.14637336678E+02 0.48960501768E+01 -.26849175970E+01 -.64799158977E+01 -.55259460312E+01
 0.40505104108E+00 0.10679775031E+02 0.23726371140E+02 0.37351521040E+02 0.49528981098E+02
 0.59221039679E+02 0.66655835901E+02 0.72894888693E+02 0.79025393632E+02 0.85241607535E+02
 0.90628597784E+02 0.93820864944E+02 0.93501224519E+02 0.88945338424E+02 0.80404513110E+02
 0.69087967788E+02 0.56713104858E+02 0.44870344469E+02 0.34560667925E+02 0.26116557124E+02
 0.19440027959E+02 0.14307556204E+02 0.13738737665E+02 0.10019385440E+02 0.75585656890E+01
 0.61048662852E+01 0.54143173751E+01 0.53041949933E+01 0.56784825313E+01 0.65187079719E+01
 0.78597300977E+01 0.97558842978E+01 0.12244782811E+02 0.15327710156E+02 0.18962896052E+02
 0.23041357705E+02 0.27348591736E+02 0.31566754281E+02 0.35254288716E+02 0.37436185046E+02
 0.36953693400E+02 0.32953999371E+02 0.25299353751E+02 0.14879973632E+02 0.35462517554E+01
 -.64012658121E+01 -.12849044779E+02 -.14270152397E+02 -.98834308308E+01 0.16604136245E+00
 0.14580326127E+02 0.31018869847E+02 0.46852993217E+02 0.60265254018E+02 0.70946150015E+02
 0.79897845319E+02 0.88539782328E+02 0.97687079787E+02 0.10667798296E+03 0.11377527176E+03
 0.11696152894E+03 0.11466182037E+03 0.10644093176E+03 0.93323682171E+02 0.77482352691E+02
 0.61403948104E+02 0.47005867213E+02 0.35188210410E+02 0.25970564403E+02 0.18957487496E+02
 0.17774815279E+02 0.12726918980E+02 0.92466791454E+01 0.70355054168E+01 0.57949923378E+01
 0.52715325621E+01 0.52999483238E+01 0.58016335221E+01 0.67673861784E+01 0.82390835156E+01
 0.10273897641E+02 0.12902509969E+02 0.16112351089E+02 0.19842904171E+02 0.23955213717E+02
 0.28197004143E+02 0.32215272439E+02 0.35267590724E+02 0.36138699598E+02 0.33733549947E+02
 0.27488873688E+02 0.17778044721E+02 0.60661368861E+01 -.54049710932E+01 -.14247980024E+02
 -.18466502238E+02 -.16716221915E+02 -.85147455645E+01 0.54213616912E+01 0.23019281272E+02
 0.41379356450E+02 0.57970584198E+02 0.71745018614E+02 0.83360845079E+02 0.94399888339E+02
 0.10617419904E+03 0.11866205752E+03 0.13010017092E+03 0.13792232527E+03 0.13966158211E+03
 0.13379059550E+03 0.12062193920E+03 0.10230788388E+03 0.82032488295E+02 0.62864631384E+02
 0.46733922438E+02 0.34167279677E+02 0.24743135786E+02 0.22602556040E+02 0.16033819327E+02
 0.11405079140E+02 0.83213214030E+01 0.64315243919E+01 0.54313811440E+01 0.50976558922E+01
 0.52832586441E+01 0.59123956256E+01 0.69921393994E+01 0.85874678559E+01 0.10753756516E+02
 0.13499860532E+02 0.16804225857E+02 0.20607668526E+02 0.24749710141E+02 0.28938127123E+02
 0.32705491050E+02 0.35003488172E+02 0.34620703692E+02 0.30650587974E+02 0.22910155497E+02
 0.12265912692E+02 0.56577411942E+00 -.98521104004E+01 -.16727889744E+02 -.18232357688E+02
 -.13223584215E+02 -.16577369363E+01 0.15023252984E+02 0.34097569736E+02 0.52618146082E+02
 0.68767982074E+02 0.82571013383E+02 0.95476402106E+02 0.10916241292E+03 0.12429598674E+03
 0.13959010398E+03 0.15231239970E+03 0.15941894547E+03 0.15803415764E+03 0.14708110034E+03
 0.12827878872E+03 0.10514948046E+03 0.81543215479E+02 0.60682648596E+02 0.44085347513E+02
 0.31673766155E+02 0.28086627457E+02 0.19836509118E+02 0.13971477741E+02 0.99384157169E+01
 0.73257333069E+01 0.57938724646E+01 0.50715957253E+01 0.49482367988E+01 0.52814354118E+01
 0.60287656168E+01 0.72374008171E+01 0.89713836592E+01 0.11260655229E+02 0.14120349769E+02
 0.17560193029E+02 0.21514973245E+02 0.25775608016E+02 0.30021673806E+02 0.33604386885E+02
 0.35363494175E+02 0.34187954138E+02 0.29424085377E+02 0.21265543416E+02 0.10892878180E+02
 0.22478320692E+00 -.85285399250E+01 -.13242988040E+02 -.12203661997E+02 -.45710842649E+01
 0.90851744594E+01 0.26671114721E+02 0.45284188780E+02 0.62533620497E+02 0.77643585395E+02
 0.91582230651E+02 0.10613891261E+03 0.12256032453E+03 0.14034819343E+03 0.15703890938E+03
 0.16950646414E+03 0.17401283243E+03 0.16779631917E+03 0.15110168257E+03 0.12733345058E+03
 0.10096700659E+03 0.76030950039E+02 0.55315389368E+02 0.39558939548E+02 0.33916651840E+02
 0.23928427932E+02 0.16804304897E+02 0.11804428613E+02 0.84428718468E+01 0.63490569038E+01
 0.52112086589E+01 0.47709701821E+01 0.48381867555E+01 0.53179434749E+01 0.62119992885E+01
 0.75714073581E+01 0.94482346268E+01 0.11894787582E+02 0.14970283428E+02 0.18690110727E+02
 0.22949903683E+02 0.27517586053E+02 0.32057942383E+02 0.35747494463E+02 0.37437727489E+02
 0.36176042832E+02 0.31562543802E+02 0.23998913030E+02 0.14691297023E+02 0.54365945653E+01
 -.16700331903E+01 -.45741600860E+01 -.17471333719E+01 0.72057973918E+01 0.21155660104E+02
 0.37732684317E+02 0.54368414753E+02 0.69563920880E+02 0.83547703184E+02 0.97844819296E+02
 0.11403697982E+03 0.13243444300E+03 0.15122537226E+03 0.16751050269E+03 0.17759016021E+03
 0.17756643256E+03 0.16579393896E+03 0.14431327348E+03 0.11774842045E+03 0.90639870769E+02
 0.66713099535E+02 0.47832956750E+02 0.39535095259E+02 0.27972899679E+02 0.19680866439E+02
 0.13780600120E+02 0.97066149413E+01 0.70564585833E+01 0.54911430238E+01 0.47264513017E+01
 0.45450946178E+01 0.48058770299E+01 0.54537629387E+01 0.65117099749E+01 0.80468715765E+01
 0.10142470465E+02 0.12890413128E+02 0.16368241370E+02 0.20577319763E+02 0.25390536938E+02
 0.30566875295E+02 0.35710430392E+02 0.39900847944E+02 0.42078103998E+02 0.41433244383E+02
 0.37673646959E+02 0.31193219186E+02 0.23090515714E+02 0.15052294358E+02 0.91140733462E+01
 0.72364808697E+01 0.10681267297E+02 0.19414579540E+02 0.31978562414E+02 0.46123178032E+02
 0.59964487599E+02 0.72956669470E+02 0.86007220928E+02 0.10064871606E+03 0.11778862500E+03
 0.13653473614E+03 0.15435075770E+03 0.16806181250E+03 0.17371834058E+03 0.16831930620E+03
 0.15199272350E+03 0.12821925419E+03 0.10165446954E+03 0.76438575771E+02 0.55466612293E+02
 0.44155331312E+02 0.31506779076E+02 0.22309268511E+02 0.15678966895E+02 0.10998715595E+02
 0.78433092892E+01 0.58697621928E+01 0.47898997219E+01 0.43714953553E+01 0.44386723531E+01
 0.48903776834E+01 0.57191696057E+01 0.69917382618E+01 0.88079271898E+01 0.11283747506E+02
 0.14545225812E+02 0.18680997636E+02 0.23665628935E+02 0.29331321709E+02 0.35412826275E+02
 0.41453999582E+02 0.46513631670E+02 0.49579939452E+02 0.49873858084E+02 0.47080300789E+02
 0.41513386936E+02 0.34187183588E+02 0.26758706844E+02 0.21249927955E+02 0.19485769389E+02
 0.22402488711E+02 0.29620382144E+02 0.39645516392E+02 0.50693291899E+02 0.61675895538E+02
 0.72733523168E+02 0.84961524116E+02 0.99487627950E+02 0.11624101465E+03 0.13348690797E+03
 0.14838187299E+03 0.15766450015E+03 0.15807587586E+03 0.14822808925E+03 0.12978519684E+03
 0.10649423484E+03 0.82450388411E+02 0.61120447272E+02 0.46936167479E+02 0.34008181340E+02
 0.24361645564E+02 0.17279760570E+02 0.12169075520E+02 0.86127453366E+01 0.62907107589E+01
 0.49291384093E+01 0.42893955050E+01 0.41758137880E+01 0.44624481128E+01 0.51178576348E+01
 0.61947552206E+01 0.77962236394E+01 0.10058418459E+02 0.13144349049E+02 0.17203117303E+02
 0.22294055095E+02 0.28338121806E+02 0.35132156149E+02 0.42379454987E+02 0.49543049901E+02
 0.55620073413E+02 0.59553347578E+02 0.60516889303E+02 0.58150960030E+02 0.52763097094E+02
 0.45433170019E+02 0.37900674907E+02 0.32142122454E+02 0.29728033174E+02 0.31257446536E+02
 0.36205140889E+02 0.43318470871E+02 0.51381087664E+02 0.59912819652E+02 0.69368178008E+02
 0.80674863786E+02 0.94205678818E+02 0.10907434934E+03 0.12323609820E+03 0.13387443749E+03
 0.13818548260E+03 0.13421657715E+03 0.12205212582E+03 0.10392662808E+03 0.83287887998E+02
 0.63566586172E+02 0.47273775143E+02 0.35030529547E+02 0.25533336781E+02 0.18365771074E+02
 0.13060217266E+02 0.92582473897E+01 0.66862244560E+01 0.50998555359E+01 0.42675921738E+01
 0.39899862749E+01 0.41324780373E+01 0.46476083735E+01 0.55718893478E+01 0.70068908538E+01
 0.91042232188E+01 0.12051030436E+02 0.16033668212E+02 0.21179184507E+02 0.27505865074E+02
 0.34903276385E+02 0.43122639471E+02 0.51749396081E+02 0.60074939998E+02 0.66945942543E+02
 0.71186990845E+02 0.71939361621E+02 0.68941958012E+02 0.62722781432E+02 0.54593180859E+02
 0.46369653457E+02 0.39865819635E+02 0.36338274251E+02 0.36136869555E+02 0.38748101205E+02
 0.43237867110E+02 0.48868386757E+02 0.55523736176E+02 0.63659185878E+02 0.73642015758E+02
 0.85149493564E+02 0.97009920366E+02 0.10723200610E+03 0.11343586782E+03 0.11362458475E+03
 0.10703395645E+03 0.94607100422E+02 0.78714713399E+02 0.62193379536E+02 0.45057736453E+02
 0.34355028868E+02 0.25619985816E+02 0.18769504604E+02 0.13539898691E+02 0.96809399926E+01
 0.69845724564E+01 0.52501596601E+01 0.42710800165E+01 0.38582765565E+01 0.38764462510E+01
 0.42687510034E+01 0.50620741060E+01 0.63582812623E+01 0.83192148498E+01 0.11145750821E+02
 0.15047067490E+02 0.20203136497E+02 0.26728538092E+02 0.34634603392E+02 0.43773086675E+02
 0.53756617009E+02 0.63889356974E+02 0.73134275201E+02 0.80103865683E+02 0.83536420810E+02
 0.82739004905E+02 0.77838389309E+02 0.69811211228E+02 0.60260997298E+02 0.51000422586E+02
 0.43574914409E+02 0.38894249327E+02 0.37109904362E+02 0.37789082729E+02 0.40305540008E+02