   9   9   0   0
  0.1255774E+02  0.4913700E-09  0.4913700E-09  0.5405130E-09  0.5000000E-15
  1.000000000000000E-004
  CAR 
 unknown system                          
     13.91750856    -20.45649866  301      1.22777090      1.00000000
    -20.456  0.0000E+00  0.0000E+00
    -20.342  0.0000E+00  0.0000E+00
    -20.227  0.0000E+00  0.0000E+00
    -20.113  0.0000E+00  0.0000E+00
    -19.998  0.0000E+00  0.0000E+00
    -19.884  0.0000E+00  0.0000E+00
    -19.769  0.0000E+00  0.0000E+00
    -19.654  0.0000E+00  0.0000E+00
    -19.540  0.0000E+00  0.0000E+00
    -19.425  0.0000E+00  0.0000E+00
    -19.311  0.0000E+00  0.0000E+00
    -19.196  0.0000E+00  0.0000E+00
    -19.082  0.0000E+00  0.0000E+00
    -18.967  0.0000E+00  0.0000E+00
    -18.852  0.0000E+00  0.0000E+00
    -18.738  0.0000E+00  0.0000E+00
    -18.623  0.0000E+00  0.0000E+00
    -18.509  0.0000E+00  0.0000E+00
    -18.394  0.2604E+00  0.5421E-02
    -18.279  0.2146E+01  0.1284E+00
    -18.165  0.4214E+01  0.4716E+00
    -18.050  0.1118E+02  0.1231E+01
    -17.936  0.1404E+01  0.1977E+01
    -17.821  0.8732E-01  0.2002E+01
    -17.707  0.8872E+00  0.2049E+01
    -17.592  0.3844E+01  0.2289E+01
    -17.477  0.7356E+01  0.2889E+01
    -17.363  0.4562E+01  0.3744E+01
    -17.248  0.6417E+00  0.3980E+01
    -17.134  0.1072E-01  0.4000E+01
    -17.019  0.4193E+00  0.4019E+01
    -16.905  0.1856E+01  0.4124E+01
    -16.790  0.8120E+01  0.4965E+01
    -16.675  0.3707E+01  0.5615E+01
    -16.561  0.1859E+01  0.5967E+01
    -16.446  0.7780E+01  0.6257E+01
    -16.332  0.7751E+01  0.7364E+01
    -16.217  0.2687E+01  0.7942E+01
    -16.102  0.1582E+02  0.9575E+01
    -15.988  0.0000E+00  0.1000E+02
    -15.873  0.1977E+02  0.1174E+02
    -15.759  0.0000E+00  0.1200E+02
    -15.644  0.0000E+00  0.1200E+02
    -15.530  0.0000E+00  0.1200E+02
    -15.415  0.0000E+00  0.1200E+02
    -15.300  0.0000E+00  0.1200E+02
    -15.186  0.0000E+00  0.1200E+02
    -15.071  0.0000E+00  0.1200E+02
    -14.957  0.0000E+00  0.1200E+02
    -14.842  0.0000E+00  0.1200E+02
    -14.727  0.0000E+00  0.1200E+02
    -14.613  0.0000E+00  0.1200E+02
    -14.498  0.0000E+00  0.1200E+02
    -14.384  0.0000E+00  0.1200E+02
    -14.269  0.0000E+00  0.1200E+02
    -14.155  0.0000E+00  0.1200E+02
    -14.040  0.0000E+00  0.1200E+02
    -13.925  0.0000E+00  0.1200E+02
    -13.811  0.0000E+00  0.1200E+02
    -13.696  0.0000E+00  0.1200E+02
    -13.582  0.0000E+00  0.1200E+02
    -13.467  0.0000E+00  0.1200E+02
    -13.353  0.0000E+00  0.1200E+02
    -13.238  0.0000E+00  0.1200E+02
    -13.123  0.0000E+00  0.1200E+02
    -13.009  0.0000E+00  0.1200E+02
    -12.894  0.0000E+00  0.1200E+02
    -12.780  0.0000E+00  0.1200E+02
    -12.665  0.0000E+00  0.1200E+02
    -12.550  0.0000E+00  0.1200E+02
    -12.436  0.0000E+00  0.1200E+02
    -12.321  0.0000E+00  0.1200E+02
    -12.207  0.0000E+00  0.1200E+02
    -12.092  0.0000E+00  0.1200E+02
    -11.978  0.0000E+00  0.1200E+02
    -11.863  0.0000E+00  0.1200E+02
    -11.748  0.0000E+00  0.1200E+02
    -11.634  0.0000E+00  0.1200E+02
    -11.519  0.0000E+00  0.1200E+02
    -11.405  0.0000E+00  0.1200E+02
    -11.290  0.0000E+00  0.1200E+02
    -11.176  0.0000E+00  0.1200E+02
    -11.061  0.0000E+00  0.1200E+02
    -10.946  0.0000E+00  0.1200E+02
    -10.832  0.0000E+00  0.1200E+02
    -10.717  0.0000E+00  0.1200E+02
    -10.603  0.0000E+00  0.1200E+02
    -10.488  0.0000E+00  0.1200E+02
    -10.373  0.0000E+00  0.1200E+02
    -10.259  0.0000E+00  0.1200E+02
    -10.144  0.0000E+00  0.1200E+02
    -10.030  0.0000E+00  0.1200E+02
     -9.915  0.0000E+00  0.1200E+02
     -9.801  0.0000E+00  0.1200E+02
     -9.686  0.0000E+00  0.1200E+02
     -9.571  0.0000E+00  0.1200E+02
     -9.457  0.0000E+00  0.1200E+02
     -9.342  0.0000E+00  0.1200E+02
     -9.228  0.0000E+00  0.1200E+02
     -9.113  0.0000E+00  0.1200E+02
     -8.998  0.0000E+00  0.1200E+02
     -8.884  0.0000E+00  0.1200E+02
     -8.769  0.0000E+00  0.1200E+02
     -8.655  0.0000E+00  0.1200E+02
     -8.540  0.0000E+00  0.1200E+02
     -8.426  0.0000E+00  0.1200E+02
     -8.311  0.0000E+00  0.1200E+02
     -8.196  0.3751E-01  0.1200E+02
     -8.082  0.1705E+00  0.1201E+02
     -7.967  0.4058E+00  0.1204E+02
     -7.853  0.8371E+00  0.1211E+02
     -7.738  0.1067E+01  0.1222E+02
     -7.624  0.1501E+01  0.1237E+02
     -7.509  0.2497E+01  0.1259E+02
     -7.394  0.5157E+01  0.1296E+02
     -7.280  0.4796E+01  0.1371E+02
     -7.165  0.1832E+00  0.1400E+02
     -7.051  0.1219E-01  0.1400E+02
     -6.936  0.8635E-01  0.1401E+02
     -6.821  0.2285E+00  0.1402E+02
     -6.707  0.4292E+00  0.1406E+02
     -6.592  0.7096E+00  0.1412E+02
     -6.478  0.1082E+01  0.1423E+02
     -6.363  0.2600E+01  0.1443E+02
     -6.249  0.4332E+01  0.1483E+02
     -6.134  0.3032E+01  0.1550E+02
     -6.019  0.1354E+01  0.1574E+02
     -5.905  0.8292E+00  0.1586E+02
     -5.790  0.4859E+00  0.1593E+02
     -5.676  0.2429E+00  0.1597E+02
     -5.561  0.1028E+00  0.1599E+02
     -5.447  0.5392E+00  0.1601E+02
     -5.332  0.2810E+01  0.1621E+02
     -5.217  0.3614E+01  0.1659E+02
     -5.103  0.3904E+01  0.1704E+02
     -4.988  0.2613E+01  0.1739E+02
     -4.874  0.1900E+01  0.1765E+02
     -4.759  0.1341E+01  0.1784E+02
     -4.644  0.8195E+00  0.1796E+02
     -4.530  0.1701E+00  0.1800E+02
     -4.415  0.1262E+02  0.1846E+02
     -4.301  0.5959E+01  0.1970E+02
     -4.186  0.4539E+01  0.2024E+02
     -4.072  0.9092E+01  0.2118E+02
     -3.957  0.2696E+01  0.2199E+02
     -3.842  0.3142E+01  0.2215E+02
     -3.728  0.9664E+01  0.2307E+02
     -3.613  0.3077E+01  0.2378E+02
     -3.499  0.1042E-01  0.2400E+02
     -3.384  0.0000E+00  0.2400E+02
     -3.269  0.0000E+00  0.2400E+02
     -3.155  0.0000E+00  0.2400E+02
     -3.040  0.0000E+00  0.2400E+02
     -2.926  0.0000E+00  0.2400E+02
     -2.811  0.0000E+00  0.2400E+02
     -2.697  0.0000E+00  0.2400E+02
     -2.582  0.0000E+00  0.2400E+02
     -2.467  0.0000E+00  0.2400E+02
     -2.353  0.0000E+00  0.2400E+02
     -2.238  0.1403E+00  0.2400E+02
     -2.124  0.1652E+02  0.2512E+02
     -2.009  0.7339E+01  0.2611E+02
     -1.895  0.6994E+01  0.2698E+02
     -1.780  0.6270E+01  0.2772E+02
     -1.665  0.1352E+01  0.2803E+02
     -1.551  0.1160E+02  0.2891E+02
     -1.436  0.2591E+01  0.2993E+02
     -1.322  0.9248E-01  0.3000E+02
     -1.207  0.1442E+02  0.3083E+02
     -1.092  0.1517E+00  0.3200E+02
     -0.978  0.1169E+02  0.3232E+02
     -0.863  0.2194E+01  0.3387E+02
     -0.749  0.1447E+01  0.3398E+02
     -0.634  0.1242E+02  0.3476E+02
     -0.520  0.6021E+01  0.3590E+02
     -0.405  0.9583E+01  0.3677E+02
     -0.290  0.5304E+01  0.3772E+02
     -0.176  0.9771E+01  0.3849E+02
     -0.061  0.7055E+01  0.3954E+02
      0.053  0.3967E+01  0.4007E+02
      0.168  0.1557E+02  0.4118E+02
      0.282  0.8583E+00  0.4199E+02
      0.397  0.1125E+02  0.4244E+02
      0.512  0.3079E+01  0.4369E+02
      0.626  0.4018E+01  0.4399E+02
      0.741  0.8600E+01  0.4466E+02
      0.855  0.9273E+01  0.4591E+02
      0.970  0.6576E+01  0.4648E+02
      1.085  0.6060E+01  0.4774E+02
      1.199  0.0000E+00  0.4800E+02
      1.314  0.0000E+00  0.4800E+02
      1.428  0.0000E+00  0.4800E+02
      1.543  0.0000E+00  0.4800E+02
      1.657  0.0000E+00  0.4800E+02
      1.772  0.0000E+00  0.4800E+02
      1.887  0.0000E+00  0.4800E+02
      2.001  0.0000E+00  0.4800E+02
      2.116  0.0000E+00  0.4800E+02
      2.230  0.0000E+00  0.4800E+02
      2.345  0.0000E+00  0.4800E+02
      2.460  0.0000E+00  0.4800E+02
      2.574  0.0000E+00  0.4800E+02
      2.689  0.0000E+00  0.4800E+02
      2.803  0.0000E+00  0.4800E+02
      2.918  0.0000E+00  0.4800E+02
      3.032  0.0000E+00  0.4800E+02
      3.147  0.0000E+00  0.4800E+02
      3.262  0.0000E+00  0.4800E+02
      3.376  0.0000E+00  0.4800E+02
      3.491  0.0000E+00  0.4800E+02
      3.605  0.0000E+00  0.4800E+02
      3.720  0.0000E+00  0.4800E+02
      3.834  0.0000E+00  0.4800E+02
      3.949  0.0000E+00  0.4800E+02
      4.064  0.0000E+00  0.4800E+02
      4.178  0.0000E+00  0.4800E+02
      4.293  0.0000E+00  0.4800E+02
      4.407  0.0000E+00  0.4800E+02
      4.522  0.0000E+00  0.4800E+02
      4.637  0.0000E+00  0.4800E+02
      4.751  0.0000E+00  0.4800E+02
      4.866  0.0000E+00  0.4800E+02
      4.980  0.0000E+00  0.4800E+02
      5.095  0.0000E+00  0.4800E+02
      5.209  0.0000E+00  0.4800E+02
      5.324  0.0000E+00  0.4800E+02
      5.439  0.0000E+00  0.4800E+02
      5.553  0.0000E+00  0.4800E+02
      5.668  0.0000E+00  0.4800E+02
      5.782  0.0000E+00  0.4800E+02
      5.897  0.0000E+00  0.4800E+02
      6.011  0.0000E+00  0.4800E+02
      6.126  0.0000E+00  0.4800E+02
      6.241  0.0000E+00  0.4800E+02
      6.355  0.0000E+00  0.4800E+02
      6.470  0.0000E+00  0.4800E+02
      6.584  0.0000E+00  0.4800E+02
      6.699  0.0000E+00  0.4800E+02
      6.814  0.0000E+00  0.4800E+02
      6.928  0.0000E+00  0.4800E+02
      7.043  0.0000E+00  0.4800E+02
      7.157  0.1881E-02  0.4800E+02
      7.272  0.1433E-01  0.4800E+02
      7.386  0.3843E-01  0.4800E+02
      7.501  0.7418E-01  0.4801E+02
      7.616  0.1216E+00  0.4802E+02
      7.730  0.1809E+00  0.4804E+02
      7.845  0.2553E+00  0.4806E+02
      7.959  0.3457E+00  0.4810E+02
      8.074  0.4046E+00  0.4814E+02
      8.189  0.4531E+00  0.4819E+02
      8.303  0.4961E+00  0.4824E+02
      8.418  0.5346E+00  0.4830E+02
      8.532  0.6079E+00  0.4837E+02
      8.647  0.6892E+00  0.4844E+02
      8.761  0.7761E+00  0.4853E+02
      8.876  0.8686E+00  0.4862E+02
      8.991  0.9668E+00  0.4873E+02
      9.105  0.1066E+01  0.4884E+02
      9.220  0.1568E+01  0.4898E+02
      9.334  0.2016E+01  0.4919E+02
      9.449  0.1875E+01  0.4941E+02
      9.563  0.1590E+01  0.4961E+02
      9.678  0.1512E+01  0.4979E+02
      9.793  0.1452E+01  0.4996E+02
      9.907  0.1364E+01  0.5012E+02
     10.022  0.8177E+00  0.5024E+02
     10.136  0.1215E+01  0.5035E+02
     10.251  0.4421E+01  0.5062E+02
     10.366  0.8362E+01  0.5144E+02
     10.480  0.5589E+01  0.5221E+02
     10.595  0.6696E+01  0.5282E+02
     10.709  0.7410E+01  0.5363E+02
     10.824  0.4622E+01  0.5426E+02
     10.938  0.3718E+01  0.5465E+02
     11.053  0.4932E+01  0.5514E+02
     11.168  0.4937E+01  0.5577E+02
     11.282  0.3990E+01  0.5629E+02
     11.397  0.7492E+01  0.5698E+02
     11.511  0.4290E+01  0.5767E+02
     11.626  0.8113E+00  0.5795E+02
     11.740  0.1730E+00  0.5799E+02
     11.855  0.2152E-01  0.5800E+02
     11.970  0.0000E+00  0.5800E+02
     12.084  0.0000E+00  0.5800E+02
     12.199  0.0000E+00  0.5800E+02
     12.313  0.0000E+00  0.5800E+02
     12.428  0.0000E+00  0.5800E+02
     12.543  0.0000E+00  0.5800E+02
     12.657  0.0000E+00  0.5800E+02
     12.772  0.0000E+00  0.5800E+02
     12.886  0.0000E+00  0.5800E+02
     13.001  0.0000E+00  0.5800E+02
     13.115  0.0000E+00  0.5800E+02
     13.230  0.0000E+00  0.5800E+02
     13.345  0.0000E+00  0.5800E+02
     13.459  0.0000E+00  0.5800E+02
     13.574  0.0000E+00  0.5800E+02
     13.688  0.0000E+00  0.5800E+02
     13.803  0.0000E+00  0.5800E+02
     13.918  0.0000E+00  0.5800E+02
