Automatically generated mesh
      36
Reciprocal lattice
    0.00000000000000    0.00000000000000    0.00000000000000             1
    0.25000000000000    0.00000000000000    0.00000000000000             2
    0.50000000000000    0.00000000000000    0.00000000000000             1
    0.00000000000000    0.25000000000000    0.00000000000000             2
    0.25000000000000    0.25000000000000    0.00000000000000             2
    0.50000000000000    0.25000000000000    0.00000000000000             2
   -0.25000000000000    0.25000000000000    0.00000000000000             2
    0.00000000000000    0.50000000000000    0.00000000000000             1
    0.25000000000000    0.50000000000000    0.00000000000000             2
    0.50000000000000    0.50000000000000    0.00000000000000             1
    0.00000000000000    0.00000000000000    0.25000000000000             2
    0.25000000000000    0.00000000000000    0.25000000000000             2
    0.50000000000000    0.00000000000000    0.25000000000000             2
   -0.25000000000000   -0.00000000000000    0.25000000000000             2
    0.00000000000000    0.25000000000000    0.25000000000000             2
    0.25000000000000    0.25000000000000    0.25000000000000             2
    0.50000000000000    0.25000000000000    0.25000000000000             2
   -0.25000000000000    0.25000000000000    0.25000000000000             2
    0.00000000000000    0.50000000000000    0.25000000000000             2
    0.25000000000000    0.50000000000000    0.25000000000000             2
    0.50000000000000    0.50000000000000    0.25000000000000             2
   -0.25000000000000    0.50000000000000    0.25000000000000             2
    0.00000000000000   -0.25000000000000    0.25000000000000             2
    0.25000000000000   -0.25000000000000    0.25000000000000             2
    0.50000000000000   -0.25000000000000    0.25000000000000             2
   -0.25000000000000   -0.25000000000000    0.25000000000000             2
    0.00000000000000    0.00000000000000    0.50000000000000             1
    0.25000000000000    0.00000000000000    0.50000000000000             2
    0.50000000000000    0.00000000000000    0.50000000000000             1
    0.00000000000000    0.25000000000000    0.50000000000000             2
    0.25000000000000    0.25000000000000    0.50000000000000             2
    0.50000000000000    0.25000000000000    0.50000000000000             2
   -0.25000000000000    0.25000000000000    0.50000000000000             2
    0.00000000000000    0.50000000000000    0.50000000000000             1
    0.25000000000000    0.50000000000000    0.50000000000000             2
    0.50000000000000    0.50000000000000    0.50000000000000             1
Tetrahedra
       192    0.00260416666667
         2         2         4         5        15
         2         1         2         4        15
         2         1         2        11        15
         2         2         5        15        16
         2         2        12        15        16
         2         2        11        12        15
         2         3         5         6        16
         2         2         3         5        16
         2         2         3        12        16
         2         3         6        16        17
         2         3        13        16        17
         2         3        12        13        16
         2         2         6         7        17
         2         2         3         6        17
         2         2         3        13        17
         2         2         7        17        18
         2         2        14        17        18
         2         2        13        14        17
         2         1         4         7        18
         2         1         2         7        18
         2         1         2        14        18
         2         1         4        15        18
         2         1        11        15        18
         2         1        11        14        18
         2         5         8         9        19
         2         4         5         8        19
         2         4         5        15        19
         2         5         9        19        20
         2         5        16        19        20
         2         5        15        16        19
         2         6         9        10        20
         2         5         6         9        20
         2         5         6        16        20
         2         6        10        20        21
         2         6        17        20        21
         2         6        16        17        20
         2         7         9        10        21
         2         6         7        10        21
         2         6         7        17        21
         2         7         9        21        22
         2         7        18        21        22
         2         7        17        18        21
         2         4         8         9        22
         2         4         7         9        22
         2         4         7        18        22
         2         4         8        19        22
         2         4        15        19        22
         2         4        15        18        22
         2         4         7         9        23
         2         4         8         9        23
         2         8         9        19        23
         2         7         9        23        24
         2         9        20        23        24
         2         9        19        20        23
         2         6         7        10        24
         2         7         9        10        24
         2         9        10        20        24
         2         6        10        24        25
         2        10        21        24        25
         2        10        20        21        24
         2         5         6         9        25
         2         6         9        10        25
         2         9        10        21        25
         2         5         9        25        26
         2         9        22        25        26
         2         9        21        22        25
         2         4         5         8        26
         2         5         8         9        26
         2         8         9        22        26
         2         4         8        23        26
         2         8        19        23        26
         2         8        19        22        26
         2         1         2         7        11
         2         1         4         7        11
         2         4         7        11        23
         2         2         7        11        12
         2         7        11        12        24
         2         7        11        23        24
         2         2         3         6        12
         2         2         6         7        12
         2         6         7        12        24
         2         3         6        12        13
         2         6        12        13        25
         2         6        12        24        25
         2         2         3         5        13
         2         3         5         6        13
         2         5         6        13        25
         2         2         5        13        14
         2         5        13        14        26
         2         5        13        25        26
         2         1         2         4        14
         2         2         4         5        14
         2         4         5        14        26
         2         1         4        11        14
         2         4        11        14        23
         2         4        14        23        26
         2        12        15        16        30
         2        11        12        15        30
         2        11        12        27        30
         2        12        16        30        31
         2        12        28        30        31
         2        12        27        28        30
         2        13        16        17        31
         2        12        13        16        31
         2        12        13        28        31
         2        13        17        31        32
         2        13        29        31        32
         2        13        28        29        31
         2        14        17        18        32
         2        13        14        17        32
         2        13        14        29        32
         2        14        18        32        33
         2        14        28        32        33
         2        14        28        29        32
         2        11        15        18        33
         2        11        14        18        33
         2        11        14        28        33
         2        11        15        30        33
         2        11        27        30        33
         2        11        27        28        33
         2        16        19        20        34
         2        15        16        19        34
         2        15        16        30        34
         2        16        20        34        35
         2        16        31        34        35
         2        16        30        31        34
         2        17        20        21        35
         2        16        17        20        35
         2        16        17        31        35
         2        17        21        35        36
         2        17        32        35        36
         2        17        31        32        35
         2        18        21        22        36
         2        17        18        21        36
         2        17        18        32        36
         2        18        22        35        36
         2        18        33        35        36
         2        18        32        33        36
         2        15        19        22        35
         2        15        18        22        35
         2        15        18        33        35
         2        15        19        34        35
         2        15        30        34        35
         2        15        30        33        35
         2        20        23        24        30
         2        19        20        23        30
         2        19        20        30        34
         2        20        24        30        33
         2        20        30        33        35
         2        20        30        34        35
         2        21        24        25        33
         2        20        21        24        33
         2        20        21        33        35
         2        21        25        32        33
         2        21        32        33        36
         2        21        33        35        36
         2        22        25        26        32
         2        21        22        25        32
         2        21        22        32        36
         2        22        26        31        32
         2        22        31        32        35
         2        22        32        35        36
         2        19        23        26        31
         2        19        22        26        31
         2        19        22        31        35
         2        19        23        30        31
         2        19        30        31        34
         2        19        31        34        35
         2        11        12        24        27
         2        11        23        24        27
         2        23        24        27        30
         2        12        24        27        28
         2        24        27        28        33
         2        24        27        30        33
         2        12        13        25        28
         2        12        24        25        28
         2        24        25        28        33
         2        13        25        28        29
         2        25        28        29        32
         2        25        28        32        33
         2        13        14        26        29
         2        13        25        26        29
         2        25        26        29        32
         2        14        26        28        29
         2        26        28        29        31
         2        26        29        31        32
         2        11        14        23        28
         2        14        23        26        28
         2        23        26        28        31
         2        11        23        27        28
         2        23        27        28        30
         2        23        28        30        31
