       N       E                     dE             d eps       ncg     rms          rms(c)
DAV:   1     0.274230514445E+03    0.27423E+03   -0.22602E+04  2096   0.125E+03
DAV:   2    -0.627052860491E+02   -0.33694E+03   -0.33071E+03  2728   0.316E+02
DAV:   3    -0.801357551049E+02   -0.17430E+02   -0.17383E+02  2438   0.828E+01
DAV:   4    -0.803538000357E+02   -0.21804E+00   -0.21772E+00  2480   0.990E+00
DAV:   5    -0.803579021387E+02   -0.41021E-02   -0.41007E-02  2413   0.133E+00    0.185E+01
RMM:   6    -0.708911018296E+02    0.94668E+01   -0.40249E+01  2225   0.332E+01    0.518E+00
RMM:   7    -0.708623863270E+02    0.28716E-01   -0.18049E+00  2404   0.615E+00    0.340E+00
RMM:   8    -0.708761264646E+02   -0.13740E-01   -0.27599E-01  2363   0.406E+00    0.635E-01
RMM:   9    -0.708679540755E+02    0.81724E-02   -0.48569E-02  2446   0.115E+00    0.147E-01
RMM:  10    -0.708705937969E+02   -0.26397E-02   -0.16002E-02  2420   0.641E-01    0.190E-01
RMM:  11    -0.708698014272E+02    0.79237E-03   -0.41509E-03  2421   0.369E-01    0.186E-02
RMM:  12    -0.708698401297E+02   -0.38702E-04   -0.16163E-04  2270   0.758E-02    0.140E-02
RMM:  13    -0.708698398450E+02    0.28472E-06   -0.81626E-06  1575   0.160E-02
   1 F= -.70869840E+02 E0= -.70869840E+02  d E =0.000000E+00
