unknown system                          
   3.10000000000000     
     1.022080    0.000000    0.000000
     0.000000    1.022080    0.000000
     0.000000    0.000000    1.022080
   Pt
     2
Direct
  0.000000  0.000000  0.000000
  0.500000  0.500000  0.500000
 
   48   48   48
  121.87      120.42      116.32      110.25      103.10      95.686      88.555      81.854      75.380      68.751    
  61.624      53.887      45.733      37.612      30.083      23.629      18.519      14.745      12.060      10.100    
  8.6702      7.6821      7.0428      6.6879      6.5732      6.6879      7.0428      7.6821      8.6702      10.100    
  12.060      14.745      18.519      23.629      30.083      37.612      45.733      53.887      61.624      68.751    
  75.380      81.854      88.555      95.686      103.10      110.25      116.32      120.42      120.42      119.00    
  114.98      109.02      101.99      94.703      87.676      81.056      74.643      68.063      60.987      53.312    
  45.234      37.201      29.765      23.399      18.363      14.644      11.994      10.056      8.6407      7.6624    
  7.0292      6.6775      6.5639      6.6775      7.0292      7.6624      8.6407      10.056      11.994      14.644    
  18.363      23.399      29.765      37.201      45.234      53.312      60.987      68.063      74.643      81.056    
  87.676      94.703      101.99      109.02      114.98      119.00      116.32      114.98      111.17      105.53    
  98.855      91.904      85.164      78.764      72.514      66.070      59.138      51.640      43.783      36.008    
  28.842      22.732      17.910      14.351      11.803      9.9256      8.5543      7.6049      6.9896      6.6471    
  6.5366      6.6471      6.9896      7.6049      8.5543      9.9256      11.803      14.351      17.910      22.732    
  28.842      36.008      43.783      51.640      59.138      66.070      72.514      78.764      85.164      91.904    
  98.855      105.53      111.17      114.98      110.25      109.02      105.53      100.34      94.167      87.695    
  81.354      75.253      69.224      62.969      56.247      49.020      41.511      34.142      27.402      21.692    
  17.205      13.893      11.500      9.7194      8.4176      7.5137      6.9269      6.5989      6.4933      6.5989    
  6.9269      7.5137      8.4176      9.7194      11.500      13.893      17.205      21.692      27.402      34.142    
  41.511      49.020      56.247      62.969      69.224      75.253      81.354      87.695      94.167      100.34    
  105.53      109.02      103.10      101.99      98.855      94.167      88.557      82.605      76.684      70.888    
  65.081      59.028      52.554      45.669      38.606      31.762      25.571      20.373      16.311      13.309    
  11.109      9.4518      8.2404      7.3955      6.8456      6.5365      6.4372      6.5365      6.8456      7.3955    
  8.2404      9.4518      11.109      13.309      16.311      20.373      25.571      31.762      38.606      45.669    
  52.554      59.028      65.081      70.888      76.684      82.605      88.557      94.167      98.855      101.99    
  95.686      94.703      91.904      87.695      82.605      77.122      71.561      66.015      60.391      54.526    
  48.320      41.827      35.286      29.053      23.497      18.885      15.301      12.642      10.654      9.1410    
  8.0346      7.2584      6.7513      6.4643      6.3723      6.4643      6.7513      7.2584      8.0346      9.1410    
  10.654      12.642      15.301      18.885      23.497      29.053      35.286      41.827      48.320      54.526    
  60.391      66.015      71.561      77.122      82.605      87.695      91.904      94.703      88.555      87.676    
  85.164      81.354      76.684      71.561      66.262      60.886      55.395      49.705      43.784      37.728    
  31.763      26.199      21.327      17.334      14.247      11.933      10.161      8.8064      7.8127      7.1115    
  6.6502      6.3876      6.3031      6.3876      6.6502      7.1115      7.8127      8.8064      10.161      11.933    
  14.247      17.334      21.327      26.199      31.763      37.728      43.784      49.705      55.395      60.886    
  66.262      71.561      76.684      81.354      85.164      87.676      81.854      81.056      78.764      75.253    
  70.888      66.015      60.886      55.622      50.245      44.741      39.143      33.569      28.227      23.363    
  19.188      15.811      13.206      11.215      9.6572      8.4663      7.5872      6.9633      6.5485      6.3115    
  6.2343      6.3115      6.5485      6.9633      7.5872      8.4663      9.6572      11.215      13.206      15.811    
  19.188      23.363      28.227      33.569      39.143      44.741      50.245      55.622      60.886      66.015    
  70.888      75.253      78.764      81.056      75.380      74.643      72.514      69.224      65.081      60.391    
  55.395      50.245      45.015      39.757      34.547      29.512      24.828      20.672      17.178      14.384    
  12.216      10.513      9.1656      8.1356      7.3692      6.8210      6.4524      6.2407      6.1710      6.2407    
  6.4524      6.8210      7.3692      8.1356      9.1656      10.513      12.216      14.384      17.178      20.672    
  24.828      29.512      34.547      39.757      45.015      50.245      55.395      60.391      65.081      69.224    
  72.514      74.643      68.751      68.063      66.070      62.969      59.028      54.526      49.705      44.741    
  39.757      34.849      30.117      25.683      21.679      18.219      15.362      13.091      11.295      9.8485    
  8.7049      7.8260      7.1674      6.6905      6.3671      6.1791      6.1175      6.1791      6.3671      6.6905    
  7.1674      7.8260      8.7049      9.8485      11.295      13.091      15.362      18.219      21.679      25.683    
  30.117      34.849      39.757      44.741      49.705      54.526      59.028      62.969      66.070      68.063    
  61.624      60.987      59.138      56.247      52.554      48.320      43.784      39.143      34.547      30.117    
  25.961      22.179      18.859      16.055      13.770      11.940      10.451      9.2410      8.2859      7.5463    
  6.9870      6.5767      6.2957      6.1308      6.0766      6.1308      6.2957      6.5767      6.9870      7.5463    
  8.2859      9.2410      10.451      11.940      13.770      16.055      18.859      22.179      25.961      30.117    
  34.547      39.143      43.784      48.320      52.554      56.247      59.138      60.987      53.887      53.312    
  51.640      49.020      45.669      41.827      37.728      33.569      29.512      25.683      22.179      19.073    
  16.412      14.199      12.398      10.919      9.6927      8.7012      7.9145      7.3011      6.8310      6.4826    
  6.2408      6.0983      6.0509      6.0983      6.2408      6.4826      6.8310      7.3011      7.9145      8.7012    
  9.6927      10.919      12.398      14.199      16.412      19.073      22.179      25.683      29.512      33.569    
  37.728      41.827      45.669      49.020      51.640      53.312      45.733      45.234      43.783      41.511    
  38.606      35.286      31.763      28.227      24.828      21.679      18.859      16.412      14.346      12.636    
  11.214      10.018      9.0303      8.2309      7.5933      7.0907      6.7013      6.4089      6.2044      6.0827    
  6.0423      6.0827      6.2044      6.4089      6.7013      7.0907      7.5933      8.2309      9.0303      10.018    
  11.214      12.636      14.346      16.412      18.859      21.679      24.828      28.227      31.763      35.286    
  38.606      41.511      43.783      45.234      37.612      37.201      36.008      34.142      31.762      29.053    
  26.199      23.363      20.672      18.219      16.055      14.199      12.636      11.315      10.188      9.2411    
  8.4618      7.8289      7.3200      6.9146      6.5967      6.3559      6.1860      6.0846      6.0509      6.0846    
  6.1860      6.3559      6.5967      6.9146      7.3200      7.8289      8.4618      9.2411      10.188      11.315    
  12.636      14.199      16.055      18.219      20.672      23.363      26.199      29.053      31.762      34.142    
  36.008      37.201      30.083      29.765      28.842      27.402      25.571      23.497      21.327      19.188    
  17.178      15.362      13.770      12.398      11.214      10.188      9.3136      8.5834      7.9814      7.4898    
  7.0908      6.7698      6.5161      6.3227      6.1858      6.1039      6.0766      6.1039      6.1858      6.3227    
  6.5161      6.7698      7.0908      7.4898      7.9814      8.5834      9.3136      10.188      11.214      12.398    
  13.770      15.362      17.178      19.188      21.327      23.497      25.571      27.402      28.842      29.765    
  23.629      23.399      22.732      21.692      20.373      18.885      17.334      15.811      14.384      13.091    
  11.940      10.919      10.018      9.2411      8.5834      8.0341      7.5798      7.2061      6.9008      6.6537    
  6.4576      6.3078      6.2018      6.1385      6.1175      6.1385      6.2018      6.3078      6.4576      6.6537    
  6.9008      7.2061      7.5798      8.0341      8.5834      9.2411      10.018      10.919      11.940      13.091    
  14.384      15.811      17.334      18.885      20.373      21.692      22.732      23.399      18.519      18.363    
  17.910      17.205      16.311      15.301      14.247      13.206      12.216      11.295      10.451      9.6927    
  9.0303      8.4618      7.9814      7.5798      7.2461      6.9709      6.7454      6.5628      6.4182      6.3086    
  6.2317      6.1861      6.1710      6.1861      6.2317      6.3086      6.4182      6.5628      6.7454      6.9709    
  7.2461      7.5798      7.9814      8.4618      9.0303      9.6927      10.451      11.295      12.216      13.206    
  14.247      15.301      16.311      17.205      17.910      18.363      14.745      14.644      14.351      13.893    
  13.309      12.642      11.933      11.215      10.513      9.8485      9.2410      8.7012      8.2309      7.8289    
  7.4898      7.2061      6.9709      6.7774      6.6199      6.4937      6.3957      6.3230      6.2730      6.2439    
  6.2343      6.2439      6.2730      6.3230      6.3957      6.4937      6.6199      6.7774      6.9709      7.2061    
  7.4898      7.8289      8.2309      8.7012      9.2410      9.8485      10.513      11.215      11.933      12.642    
  13.309      13.893      14.351      14.644      12.060      11.994      11.803      11.500      11.109      10.654    
  10.161      9.6572      9.1656      8.7049      8.2859      7.9145      7.5933      7.3200      7.0908      6.9008    
  6.7454      6.6199      6.5204      6.4439      6.3874      6.3478      6.3220      6.3077      6.3031      6.3077    
  6.3220      6.3478      6.3874      6.4439      6.5204      6.6199      6.7454      6.9008      7.0908      7.3200    
  7.5933      7.9145      8.2859      8.7049      9.1656      9.6572      10.161      10.654      11.109      11.500    
  11.803      11.994      10.100      10.056      9.9256      9.7194      9.4518      9.1410      8.8064      8.4663    
  8.1356      7.8260      7.5463      7.3011      7.0907      6.9146      6.7698      6.6537      6.5628      6.4937    
  6.4439      6.4105      6.3901      6.3791      6.3742      6.3726      6.3723      6.3726      6.3742      6.3791    
  6.3901      6.4105      6.4439      6.4937      6.5628      6.6537      6.7698      6.9146      7.0907      7.3011    
  7.5463      7.8260      8.1356      8.4663      8.8064      9.1410      9.4518      9.7194      9.9256      10.056    
  8.6702      8.6407      8.5543      8.4176      8.2404      8.0346      7.8127      7.5872      7.3692      7.1674    
  6.9870      6.8310      6.7013      6.5967      6.5161      6.4576      6.4182      6.3957      6.3874      6.3901    
  6.3998      6.4127      6.4251      6.4340      6.4372      6.4340      6.4251      6.4127      6.3998      6.3901    
  6.3874      6.3957      6.4182      6.4576      6.5161      6.5967      6.7013      6.8310      6.9870      7.1674    
  7.3692      7.5872      7.8127      8.0346      8.2404      8.4176      8.5543      8.6407      7.6821      7.6624    
  7.6049      7.5137      7.3955      7.2584      7.1115      6.9633      6.8210      6.6905      6.5767      6.4826    
  6.4089      6.3559      6.3227      6.3078      6.3086      6.3230      6.3478      6.3791      6.4127      6.4444    
  6.4703      6.4874      6.4933      6.4874      6.4703      6.4444      6.4127      6.3791      6.3478      6.3230    
  6.3086      6.3078      6.3227      6.3559      6.4089      6.4826      6.5767      6.6905      6.8210      6.9633    
  7.1115      7.2584      7.3955      7.5137      7.6049      7.6624      7.0428      7.0292      6.9896      6.9269    
  6.8456      6.7513      6.6502      6.5485      6.4524      6.3671      6.2957      6.2408      6.2044      6.1860    
  6.1858      6.2018      6.2317      6.2730      6.3220      6.3742      6.4251      6.4703      6.5059      6.5287    
  6.5366      6.5287      6.5059      6.4703      6.4251      6.3742      6.3220      6.2730      6.2317      6.2018    
  6.1858      6.1860      6.2044      6.2408      6.2957      6.3671      6.4524      6.5485      6.6502      6.7513    
  6.8456      6.9269      6.9896      7.0292      6.6879      6.6775      6.6471      6.5989      6.5365      6.4643    
  6.3876      6.3115      6.2407      6.1791      6.1308      6.0983      6.0827      6.0846      6.1039      6.1385    
  6.1861      6.2439      6.3077      6.3726      6.4340      6.4874      6.5287      6.5549      6.5639      6.5549    
  6.5287      6.4874      6.4340      6.3726      6.3077      6.2439      6.1861      6.1385      6.1039      6.0846    
  6.0827      6.0983      6.1308      6.1791      6.2407      6.3115      6.3876      6.4643      6.5365      6.5989    
  6.6471      6.6775      6.5732      6.5639      6.5366      6.4933      6.4372      6.3723      6.3031      6.2343    
  6.1710      6.1175      6.0766      6.0509      6.0423      6.0509      6.0766      6.1175      6.1710      6.2343    
  6.3031      6.3723      6.4372      6.4933      6.5366      6.5639      6.5732      6.5639      6.5366      6.4933    
  6.4372      6.3723      6.3031      6.2343      6.1710      6.1175      6.0766      6.0509      6.0423      6.0509    
  6.0766      6.1175      6.1710      6.2343      6.3031      6.3723      6.4372      6.4933      6.5366      6.5639    
  6.6879      6.6775      6.6471      6.5989      6.5365      6.4643      6.3876      6.3115      6.2407      6.1791    
  6.1308      6.0983      6.0827      6.0846      6.1039      6.1385      6.1861      6.2439      6.3077      6.3726    
  6.4340      6.4874      6.5287      6.5549      6.5639      6.5549      6.5287      6.4874      6.4340      6.3726    
  6.3077      6.2439      6.1861      6.1385      6.1039      6.0846      6.0827      6.0983      6.1308      6.1791    
  6.2407      6.3115      6.3876      6.4643      6.5365      6.5989      6.6471      6.6775      7.0428      7.0292    
  6.9896      6.9269      6.8456      6.7513      6.6502      6.5485      6.4524      6.3671      6.2957      6.2408    
  6.2044      6.1860      6.1858      6.2018      6.2317      6.2730      6.3220      6.3742      6.4251      6.4703    
  6.5059      6.5287      6.5366      6.5287      6.5059      6.4703      6.4251      6.3742      6.3220      6.2730    
  6.2317      6.2018      6.1858      6.1860      6.2044      6.2408      6.2957      6.3671      6.4524      6.5485    
  6.6502      6.7513      6.8456      6.9269      6.9896      7.0292      7.6821      7.6624      7.6049      7.5137    
  7.3955      7.2584      7.1115      6.9633      6.8210      6.6905      6.5767      6.4826      6.4089      6.3559    
  6.3227      6.3078      6.3086      6.3230      6.3478      6.3791      6.4127      6.4444      6.4703      6.4874    
  6.4933      6.4874      6.4703      6.4444      6.4127      6.3791      6.3478      6.3230      6.3086      6.3078    
  6.3227      6.3559      6.4089      6.4826      6.5767      6.6905      6.8210      6.9633      7.1115      7.2584    
  7.3955      7.5137      7.6049      7.6624      8.6702      8.6407      8.5543      8.4176      8.2404      8.0346    
  7.8127      7.5872      7.3692      7.1674      6.9870      6.8310      6.7013      6.5967      6.5161      6.4576    
  6.4182      6.3957      6.3874      6.3901      6.3998      6.4127      6.4251      6.4340      6.4372      6.4340    
  6.4251      6.4127      6.3998      6.3901      6.3874      6.3957      6.4182      6.4576      6.5161      6.5967    
  6.7013      6.8310      6.9870      7.1674      7.3692      7.5872      7.8127      8.0346      8.2404      8.4176    
  8.5543      8.6407      10.100      10.056      9.9256      9.7194      9.4518      9.1410      8.8064      8.4663    
  8.1356      7.8260      7.5463      7.3011      7.0907      6.9146      6.7698      6.6537      6.5628      6.4937    
  6.4439      6.4105      6.3901      6.3791      6.3742      6.3726      6.3723      6.3726      6.3742      6.3791    
  6.3901      6.4105      6.4439      6.4937      6.5628      6.6537      6.7698      6.9146      7.0907      7.3011    
  7.5463      7.8260      8.1356      8.4663      8.8064      9.1410      9.4518      9.7194      9.9256      10.056    
  12.060      11.994      11.803      11.500      11.109      10.654      10.161      9.6572      9.1656      8.7049    
  8.2859      7.9145      7.5933      7.3200      7.0908      6.9008      6.7454      6.6199      6.5204      6.4439    
  6.3874      6.3478      6.3220      6.3077      6.3031      6.3077      6.3220      6.3478      6.3874      6.4439    
  6.5204      6.6199      6.7454      6.9008      7.0908      7.3200      7.5933      7.9145      8.2859      8.7049    
  9.1656      9.6572      10.161      10.654      11.109      11.500      11.803      11.994      14.745      14.644    
  14.351      13.893      13.309      12.642      11.933      11.215      10.513      9.8485      9.2410      8.7012    
  8.2309      7.8289      7.4898      7.2061      6.9709      6.7774      6.6199      6.4937      6.3957      6.3230    
  6.2730      6.2439      6.2343      6.2439      6.2730      6.3230      6.3957      6.4937      6.6199      6.7774    
  6.9709      7.2061      7.4898      7.8289      8.2309      8.7012      9.2410      9.8485      10.513      11.215    
  11.933      12.642      13.309      13.893      14.351      14.644      18.519      18.363      17.910      17.205    
  16.311      15.301      14.247      13.206      12.216      11.295      10.451      9.6927      9.0303      8.4618    
  7.9814      7.5798      7.2461      6.9709      6.7454      6.5628      6.4182      6.3086      6.2317      6.1861    
  6.1710      6.1861      6.2317      6.3086      6.4182      6.5628      6.7454      6.9709      7.2461      7.5798    
  7.9814      8.4618      9.0303      9.6927      10.451      11.295      12.216      13.206      14.247      15.301    
  16.311      17.205      17.910      18.363      23.629      23.399      22.732      21.692      20.373      18.885    
  17.334      15.811      14.384      13.091      11.940      10.919      10.018      9.2411      8.5834      8.0341    
  7.5798      7.2061      6.9008      6.6537      6.4576      6.3078      6.2018      6.1385      6.1175      6.1385    
  6.2018      6.3078      6.4576      6.6537      6.9008      7.2061      7.5798      8.0341      8.5834      9.2411    
  10.018      10.919      11.940      13.091      14.384      15.811      17.334      18.885      20.373      21.692    
  22.732      23.399      30.083      29.765      28.842      27.402      25.571      23.497      21.327      19.188    
  17.178      15.362      13.770      12.398      11.214      10.188      9.3136      8.5834      7.9814      7.4898    
  7.0908      6.7698      6.5161      6.3227      6.1858      6.1039      6.0766      6.1039      6.1858      6.3227    
  6.5161      6.7698      7.0908      7.4898      7.9814      8.5834      9.3136      10.188      11.214      12.398    
  13.770      15.362      17.178      19.188      21.327      23.497      25.571      27.402      28.842      29.765    
  37.612      37.201      36.008      34.142      31.762      29.053      26.199      23.363      20.672      18.219    
  16.055      14.199      12.636      11.315      10.188      9.2411      8.4618      7.8289      7.3200      6.9146    
  6.5967      6.3559      6.1860      6.0846      6.0509      6.0846      6.1860      6.3559      6.5967      6.9146    
  7.3200      7.8289      8.4618      9.2411      10.188      11.315      12.636      14.199      16.055      18.219    
  20.672      23.363      26.199      29.053      31.762      34.142      36.008      37.201      45.733      45.234    
  43.783      41.511      38.606      35.286      31.763      28.227      24.828      21.679      18.859      16.412    
  14.346      12.636      11.214      10.018      9.0303      8.2309      7.5933      7.0907      6.7013      6.4089    
  6.2044      6.0827      6.0423      6.0827      6.2044      6.4089      6.7013      7.0907      7.5933      8.2309    
  9.0303      10.018      11.214      12.636      14.346      16.412      18.859      21.679      24.828      28.227    
  31.763      35.286      38.606      41.511      43.783      45.234      53.887      53.312      51.640      49.020    
  45.669      41.827      37.728      33.569      29.512      25.683      22.179      19.073      16.412      14.199    
  12.398      10.919      9.6927      8.7012      7.9145      7.3011      6.8310      6.4826      6.2408      6.0983    
  6.0509      6.0983      6.2408      6.4826      6.8310      7.3011      7.9145      8.7012      9.6927      10.919    
  12.398      14.199      16.412      19.073      22.179      25.683      29.512      33.569      37.728      41.827    
  45.669      49.020      51.640      53.312      61.624      60.987      59.138      56.247      52.554      48.320    
  43.784      39.143      34.547      30.117      25.961      22.179      18.859      16.055      13.770      11.940    
  10.451      9.2410      8.2859      7.5463      6.9870      6.5767      6.2957      6.1308      6.0766      6.1308    
  6.2957      6.5767      6.9870      7.5463      8.2859      9.2410      10.451      11.940      13.770      16.055    
  18.859      22.179      25.961      30.117      34.547      39.143      43.784      48.320      52.554      56.247    
  59.138      60.987      68.751      68.063      66.070      62.969      59.028      54.526      49.705      44.741    
  39.757      34.849      30.117      25.683      21.679      18.219      15.362      13.091      11.295      9.8485    
  8.7049      7.8260      7.1674      6.6905      6.3671      6.1791      6.1175      6.1791      6.3671      6.6905    
  7.1674      7.8260      8.7049      9.8485      11.295      13.091      15.362      18.219      21.679      25.683    
  30.117      34.849      39.757      44.741      49.705      54.526      59.028      62.969      66.070      68.063    
  75.380      74.643      72.514      69.224      65.081      60.391      55.395      50.245      45.015      39.757    
  34.547      29.512      24.828      20.672      17.178      14.384      12.216      10.513      9.1656      8.1356    
  7.3692      6.8210      6.4524      6.2407      6.1710      6.2407      6.4524      6.8210      7.3692      8.1356    
  9.1656      10.513      12.216      14.384      17.178      20.672      24.828      29.512      34.547      39.757    
  45.015      50.245      55.395      60.391      65.081      69.224      72.514      74.643      81.854      81.056    
  78.764      75.253      70.888      66.015      60.886      55.622      50.245      44.741      39.143      33.569    
  28.227      23.363      19.188      15.811      13.206      11.215      9.6572      8.4663      7.5872      6.9633    
  6.5485      6.3115      6.2343      6.3115      6.5485      6.9633      7.5872      8.4663      9.6572      11.215    
  13.206      15.811      19.188      23.363      28.227      33.569      39.143      44.741      50.245      55.622    
  60.886      66.015      70.888      75.253      78.764      81.056      88.555      87.676      85.164      81.354    
  76.684      71.561      66.262      60.886      55.395      49.705      43.784      37.728      31.763      26.199    
  21.327      17.334      14.247      11.933      10.161      8.8064      7.8127      7.1115      6.6502      6.3876    
  6.3031      6.3876      6.6502      7.1115      7.8127      8.8064      10.161      11.933      14.247      17.334    
  21.327      26.199      31.763      37.728      43.784      49.705      55.395      60.886      66.262      71.561    
  76.684      81.354      85.164      87.676      95.686      94.703      91.904      87.695      82.605      77.122    
  71.561      66.015      60.391      54.526      48.320      41.827      35.286      29.053      23.497      18.885    
  15.301      12.642      10.654      9.1410      8.0346      7.2584      6.7513      6.4643      6.3723      6.4643    
  6.7513      7.2584      8.0346      9.1410      10.654      12.642      15.301      18.885      23.497      29.053    
  35.286      41.827      48.320      54.526      60.391      66.015      71.561      77.122      82.605      87.695    
  91.904      94.703      103.10      101.99      98.855      94.167      88.557      82.605      76.684      70.888    
  65.081      59.028      52.554      45.669      38.606      31.762      25.571      20.373      16.311      13.309    
  11.109      9.4518      8.2404      7.3955      6.8456      6.5365      6.4372      6.5365      6.8456      7.3955    
  8.2404      9.4518      11.109      13.309      16.311      20.373      25.571      31.762      38.606      45.669    
  52.554      59.028      65.081      70.888      76.684      82.605      88.557      94.167      98.855      101.99    
  110.25      109.02      105.53      100.34      94.167      87.695      81.354      75.253      69.224      62.969    
  56.247      49.020      41.511      34.142      27.402      21.692      17.205      13.893      11.500      9.7194    
  8.4176      7.5137      6.9269      6.5989      6.4933      6.5989      6.9269      7.5137      8.4176      9.7194    
  11.500      13.893      17.205      21.692      27.402      34.142      41.511      49.020      56.247      62.969    
  69.224      75.253      81.354      87.695      94.167      100.34      105.53      109.02      116.32      114.98    
  111.17      105.53      98.855      91.904      85.164      78.764      72.514      66.070      59.138      51.640    
  43.783      36.008      28.842      22.732      17.910      14.351      11.803      9.9256      8.5543      7.6049    
  6.9896      6.6471      6.5366      6.6471      6.9896      7.6049      8.5543      9.9256      11.803      14.351    
  17.910      22.732      28.842      36.008      43.783      51.640      59.138      66.070      72.514      78.764    
  85.164      91.904      98.855      105.53      111.17      114.98      120.42      119.00      114.98      109.02    
  101.99      94.703      87.676      81.056      74.643      68.063      60.987      53.312      45.234      37.201    
  29.765      23.399      18.363      14.644      11.994      10.056      8.6407      7.6624      7.0292      6.6775    
  6.5639      6.6775      7.0292      7.6624      8.6407      10.056      11.994      14.644      18.363      23.399    
  29.765      37.201      45.234      53.312      60.987      68.063      74.643      81.056      87.676      94.703    
  101.99      109.02      114.98      119.00      120.42      119.00      114.98      109.02      101.99      94.703    
  87.676      81.056      74.643      68.063      60.987      53.312      45.234      37.201      29.765      23.399    
  18.363      14.644      11.994      10.056      8.6407      7.6624      7.0292      6.6775      6.5639      6.6775    
  7.0292      7.6624      8.6407      10.056      11.994      14.644      18.363      23.399      29.765      37.201    
  45.234      53.312      60.987      68.063      74.643      81.056      87.676      94.703      101.99      109.02    
  114.98      119.00      119.00      117.60      113.66      107.81      100.91      93.735      86.810      80.269    
  73.915      67.384      60.359      52.744      44.742      36.797      29.452      23.173      18.210      14.545    
  11.930      10.012      8.6118      7.6433      7.0161      6.6675      6.5549      6.6675      7.0161      7.6433    
  8.6118      10.012      11.930      14.545      18.210      23.173      29.452      36.797      44.742      52.744    
  60.359      67.384      73.915      80.269      86.810      93.735      100.91      107.81      113.66      117.60    
  114.98      113.66      109.92      104.38      97.822      90.981      84.336      78.008      71.814      65.417    
  58.534      51.095      43.313      35.623      28.545      22.518      17.765      14.258      11.742      9.8845    
  8.5274      7.5873      6.9778      6.6383      6.5287      6.6383      6.9778      7.5873      8.5274      9.8845    
  11.742      14.258      17.765      22.518      28.545      35.623      43.313      51.095      58.534      65.417    
  71.814      78.008      84.336      90.981      97.822      104.38      109.92      113.66      109.02      107.81    