unknown system                          
   3.10000000000000     
     1.022080    0.000000    0.000000
     0.000000    1.022080    0.000000
     0.000000    0.000000    1.022080
   Pt
     2
Direct
  0.000000  0.000000  0.000000
  0.500000  0.500000  0.500000
 
   48   48   48
 0.12186852311E+03 0.12041909793E+03 0.11632297999E+03 0.11025490898E+03 0.10310039519E+03
 0.95686490842E+02 0.88555209215E+02 0.81854008195E+02 0.75380486765E+02 0.68750896287E+02
 0.61624491312E+02 0.53887327684E+02 0.45733006810E+02 0.37611986938E+02 0.30082688112E+02
 0.23628928215E+02 0.18518899184E+02 0.14745004740E+02 0.12059510902E+02 0.10100251462E+02
 0.86702054941E+01 0.76821073175E+01 0.70427731110E+01 0.66878976070E+01 0.65732389331E+01
 0.66878976070E+01 0.70427731110E+01 0.76821073175E+01 0.86702054941E+01 0.10100251462E+02
 0.12059510902E+02 0.14745004740E+02 0.18518899184E+02 0.23628928215E+02 0.30082688112E+02
 0.37611986938E+02 0.45733006810E+02 0.53887327684E+02 0.61624491312E+02 0.68750896287E+02
 0.75380486765E+02 0.81854008195E+02 0.88555209215E+02 0.95686490842E+02 0.10310039519E+03
 0.11025490898E+03 0.11632297999E+03 0.12041909793E+03 0.12041909793E+03 0.11899708364E+03
 0.11497780785E+03 0.10902150030E+03 0.10199396641E+03 0.94702894380E+02 0.87676148331E+02
 0.81055702004E+02 0.74642580254E+02 0.68062916829E+02 0.60987466469E+02 0.53311856327E+02
 0.45233976796E+02 0.37201338635E+02 0.29764924332E+02 0.23398896681E+02 0.18362768122E+02
 0.14644135317E+02 0.11993966560E+02 0.10055762147E+02 0.86406549662E+01 0.76624297316E+01
 0.70292275552E+01 0.66775133387E+01 0.65638972150E+01 0.66775133387E+01 0.70292275552E+01
 0.76624297316E+01 0.86406549662E+01 0.10055762147E+02 0.11993966560E+02 0.14644135317E+02
 0.18362768122E+02 0.23398896681E+02 0.29764924332E+02 0.37201338635E+02 0.45233976796E+02
 0.53311856327E+02 0.60987466469E+02 0.68062916829E+02 0.74642580254E+02 0.81055702004E+02
 0.87676148331E+02 0.94702894380E+02 0.10199396641E+03 0.10902150030E+03 0.11497780785E+03
 0.11899708364E+03 0.11632297999E+03 0.11497780785E+03 0.11117366180E+03 0.10552945937E+03
 0.98855075764E+02 0.91903700280E+02 0.85164060055E+02 0.78763704157E+02 0.72514123671E+02
 0.66070404019E+02 0.59137958305E+02 0.51639594211E+02 0.43783094938E+02 0.36008232553E+02
 0.28842379081E+02 0.22731650814E+02 0.17910010689E+02 0.14351194454E+02 0.11802618879E+02
 0.99256275317E+01 0.85542973475E+01 0.76048807501E+01 0.69896196903E+01 0.66471092104E+01
 0.65365639308E+01 0.66471092104E+01 0.69896196903E+01 0.76048807501E+01 0.85542973475E+01
 0.99256275317E+01 0.11802618879E+02 0.14351194454E+02 0.17910010689E+02 0.22731650814E+02
 0.28842379081E+02 0.36008232553E+02 0.43783094938E+02 0.51639594211E+02 0.59137958305E+02
 0.66070404019E+02 0.72514123671E+02 0.78763704157E+02 0.85164060055E+02 0.91903700280E+02
 0.98855075764E+02 0.10552945937E+03 0.11117366180E+03 0.11497780785E+03 0.11025490898E+03
 0.10902150030E+03 0.10552945937E+03 0.10033571771E+03 0.94166700275E+02 0.87695304928E+02
 0.81354167594E+02 0.75253150372E+02 0.69224041866E+02 0.62969119100E+02 0.56246698853E+02
 0.49020111442E+02 0.41510675212E+02 0.34141665254E+02 0.27401814365E+02 0.21691549896E+02
 0.17204543127E+02 0.13893170632E+02 0.11500371560E+02 0.97194169889E+01 0.84175856278E+01
 0.75136987307E+01 0.69268968475E+01 0.65989220612E+01 0.64932801575E+01 0.65989220612E+01
 0.69268968475E+01 0.75136987307E+01 0.84175856278E+01 0.97194169889E+01 0.11500371560E+02
 0.13893170632E+02 0.17204543127E+02 0.21691549896E+02 0.27401814365E+02 0.34141665254E+02
 0.41510675212E+02 0.49020111442E+02 0.56246698853E+02 0.62969119100E+02 0.69224041866E+02
 0.75253150372E+02 0.81354167594E+02 0.87695304928E+02 0.94166700275E+02 0.10033571771E+03
 0.10552945937E+03 0.10902150030E+03 0.10310039519E+03 0.10199396641E+03 0.98855075764E+02
 0.94166700275E+02 0.88556730930E+02 0.82605304643E+02 0.76683640487E+02 0.70887700879E+02
 0.65080849445E+02 0.59027717595E+02 0.52553545802E+02 0.45669039122E+02 0.38605947271E+02
 0.31761688940E+02 0.25570739958E+02 0.20373014873E+02 0.16310544598E+02 0.13309041596E+02
 0.11108855012E+02 0.94518319308E+01 0.82403820784E+01 0.73954760756E+01 0.68455996959E+01
 0.65364621315E+01 0.64371988291E+01 0.65364621315E+01 0.68455996959E+01 0.73954760756E+01
 0.82403820784E+01 0.94518319308E+01 0.11108855012E+02 0.13309041596E+02 0.16310544598E+02
 0.20373014873E+02 0.25570739958E+02 0.31761688940E+02 0.38605947271E+02 0.45669039122E+02
 0.52553545802E+02 0.59027717595E+02 0.65080849445E+02 0.70887700879E+02 0.76683640487E+02
 0.82605304643E+02 0.88556730930E+02 0.94166700275E+02 0.98855075764E+02 0.10199396641E+03
 0.95686490842E+02 0.94702894380E+02 0.91903700280E+02 0.87695304928E+02 0.82605304643E+02
 0.77122130680E+02 0.71561346555E+02 0.66015030789E+02 0.60390791318E+02 0.54526427990E+02
 0.48319525335E+02 0.41827417945E+02 0.35285838008E+02 0.29052963568E+02 0.23496810341E+02
 0.18884765184E+02 0.15301262401E+02 0.12642226378E+02 0.10653654067E+02 0.91409855594E+01
 0.80345562795E+01 0.72584120389E+01 0.67513294803E+01 0.64642939995E+01 0.63723148914E+01
 0.64642939995E+01 0.67513294803E+01 0.72584120389E+01 0.80345562795E+01 0.91409855594E+01
 0.10653654067E+02 0.12642226378E+02 0.15301262401E+02 0.18884765184E+02 0.23496810341E+02
 0.29052963568E+02 0.35285838008E+02 0.41827417945E+02 0.48319525335E+02 0.54526427990E+02
 0.60390791318E+02 0.66015030789E+02 0.71561346555E+02 0.77122130680E+02 0.82605304643E+02
 0.87695304928E+02 0.91903700280E+02 0.94702894380E+02 0.88555209215E+02 0.87676148331E+02
 0.85164060055E+02 0.81354167594E+02 0.76683640487E+02 0.71561346555E+02 0.66261759542E+02
 0.60885875744E+02 0.55395493241E+02 0.49705122291E+02 0.43783976927E+02 0.37727534033E+02
 0.31763495820E+02 0.26199171621E+02 0.21326503602E+02 0.17333524388E+02 0.14247346904E+02
 0.11933188723E+02 0.10161108550E+02 0.88063987655E+01 0.78127139371E+01 0.71115126320E+01
 0.66501905146E+01 0.63876043294E+01 0.63030737190E+01 0.63876043294E+01 0.66501905146E+01
 0.71115126320E+01 0.78127139371E+01 0.88063987655E+01 0.10161108550E+02 0.11933188723E+02
 0.14247346904E+02 0.17333524388E+02 0.21326503602E+02 0.26199171621E+02 0.31763495820E+02
 0.37727534033E+02 0.43783976927E+02 0.49705122291E+02 0.55395493241E+02 0.60885875744E+02
 0.66261759542E+02 0.71561346555E+02 0.76683640487E+02 0.81354167594E+02 0.85164060055E+02
 0.87676148331E+02 0.81854008195E+02 0.81055702004E+02 0.78763704157E+02 0.75253150372E+02
 0.70887700879E+02 0.66015030789E+02 0.60885875744E+02 0.55621927528E+02 0.50244505802E+02
 0.44741266009E+02 0.39142878658E+02 0.33568838984E+02 0.28227040926E+02 0.23362507605E+02
 0.19187694617E+02 0.15810742298E+02 0.13206405248E+02 0.11214929328E+02 0.96571808808E+01
 0.84662574177E+01 0.75871660510E+01 0.69632946659E+01 0.65485024429E+01 0.63115480983E+01
 0.62343221908E+01 0.63115480983E+01 0.65485024429E+01 0.69632946659E+01 0.75871660510E+01
 0.84662574177E+01 0.96571808808E+01 0.11214929328E+02 0.13206405248E+02 0.15810742298E+02
 0.19187694617E+02 0.23362507605E+02 0.28227040926E+02 0.33568838984E+02 0.39142878658E+02
 0.44741266009E+02 0.50244505802E+02 0.55621927528E+02 0.60885875744E+02 0.66015030789E+02
 0.70887700879E+02 0.75253150372E+02 0.78763704157E+02 0.81055702004E+02 0.75380486765E+02
 0.74642580254E+02 0.72514123671E+02 0.69224041866E+02 0.65080849445E+02 0.60390791318E+02
 0.55395493241E+02 0.50244505802E+02 0.45014961241E+02 0.39757001206E+02 0.34546984156E+02
 0.29512392275E+02 0.24827622275E+02 0.20672104311E+02 0.17178361572E+02 0.14383751141E+02
 0.12216401263E+02 0.10512798739E+02 0.91656264812E+01 0.81355874965E+01 0.73691580789E+01
 0.68209925056E+01 0.64524191724E+01 0.62406800059E+01 0.61709954034E+01 0.62406800059E+01
 0.64524191724E+01 0.68209925056E+01 0.73691580789E+01 0.81355874965E+01 0.91656264812E+01
 0.10512798739E+02 0.12216401263E+02 0.14383751141E+02 0.17178361572E+02 0.20672104311E+02
 0.24827622275E+02 0.29512392275E+02 0.34546984156E+02 0.39757001206E+02 0.45014961241E+02
 0.50244505802E+02 0.55395493241E+02 0.60390791318E+02 0.65080849445E+02 0.69224041866E+02
 0.72514123671E+02 0.74642580254E+02 0.68750896287E+02 0.68062916829E+02 0.66070404019E+02
 0.62969119100E+02 0.59027717595E+02 0.54526427990E+02 0.49705122291E+02 0.44741266009E+02
 0.39757001206E+02 0.34848979978E+02 0.30117277190E+02 0.25683217062E+02 0.21678909659E+02
 0.18218751958E+02 0.15362424219E+02 0.13090854360E+02 0.11295308968E+02 0.98484986932E+01
 0.87048933157E+01 0.78259866779E+01 0.71673513836E+01 0.66904600923E+01 0.63670621343E+01
 0.61791103233E+01 0.61174545441E+01 0.61791103233E+01 0.63670621343E+01 0.66904600923E+01
 0.71673513836E+01 0.78259866779E+01 0.87048933157E+01 0.98484986932E+01 0.11295308968E+02
 0.13090854360E+02 0.15362424219E+02 0.18218751958E+02 0.21678909659E+02 0.25683217062E+02
 0.30117277190E+02 0.34848979978E+02 0.39757001206E+02 0.44741266009E+02 0.49705122291E+02
 0.54526427990E+02 0.59027717595E+02 0.62969119100E+02 0.66070404019E+02 0.68062916829E+02
 0.61624491312E+02 0.60987466469E+02 0.59137958305E+02 0.56246698853E+02 0.52553545802E+02
 0.48319525335E+02 0.43783976927E+02 0.39142878658E+02 0.34546984156E+02 0.30117277190E+02
 0.25960920587E+02 0.22179275422E+02 0.18858694930E+02 0.16055302602E+02 0.13770070605E+02
 0.11940089292E+02 0.10450797910E+02 0.92409912185E+01 0.82858509237E+01 0.75463089077E+01
 0.69869727795E+01 0.65767236223E+01 0.62957276798E+01 0.61307589731E+01 0.60766111864E+01
 0.61307589731E+01 0.62957276798E+01 0.65767236223E+01 0.69869727795E+01 0.75463089077E+01
 0.82858509237E+01 0.92409912185E+01 0.10450797910E+02 0.11940089292E+02 0.13770070605E+02
 0.16055302602E+02 0.18858694930E+02 0.22179275422E+02 0.25960920587E+02 0.30117277190E+02
 0.34546984156E+02 0.39142878658E+02 0.43783976927E+02 0.48319525335E+02 0.52553545802E+02
 0.56246698853E+02 0.59137958305E+02 0.60987466469E+02 0.53887327684E+02 0.53311856327E+02
 0.51639594211E+02 0.49020111442E+02 0.45669039122E+02 0.41827417945E+02 0.37727534033E+02
 0.33568838984E+02 0.29512392275E+02 0.25683217062E+02 0.22179275422E+02 0.19073274985E+02
 0.16411527752E+02 0.14199253068E+02 0.12398186360E+02 0.10918693833E+02 0.96927270164E+01
 0.87011815549E+01 0.79144637953E+01 0.73010893996E+01 0.68309730152E+01 0.64826061102E+01
 0.62408115624E+01 0.60982762469E+01 0.60508758085E+01 0.60982762469E+01 0.62408115624E+01
 0.64826061102E+01 0.68309730152E+01 0.73010893996E+01 0.79144637953E+01 0.87011815549E+01
 0.96927270164E+01 0.10918693833E+02 0.12398186360E+02 0.14199253068E+02 0.16411527752E+02
 0.19073274985E+02 0.22179275422E+02 0.25683217062E+02 0.29512392275E+02 0.33568838984E+02
 0.37727534033E+02 0.41827417945E+02 0.45669039122E+02 0.49020111442E+02 0.51639594211E+02
 0.53311856327E+02 0.45733006810E+02 0.45233976796E+02 0.43783094938E+02 0.41510675212E+02
 0.38605947271E+02 0.35285838008E+02 0.31763495820E+02 0.28227040926E+02 0.24827622275E+02
 0.21678909659E+02 0.18858694930E+02 0.16411527752E+02 0.14345744816E+02 0.12635851287E+02
 0.11214181000E+02 0.10017934977E+02 0.90302772262E+01 0.82308935278E+01 0.75932782130E+01
 0.70907075512E+01 0.67012646292E+01 0.64089154960E+01 0.62043505214E+01 0.60826691886E+01
 0.60423079275E+01 0.60826691886E+01 0.62043505214E+01 0.64089154960E+01 0.67012646292E+01
 0.70907075512E+01 0.75932782130E+01 0.82308935278E+01 0.90302772262E+01 0.10017934977E+02
 0.11214181000E+02 0.12635851287E+02 0.14345744816E+02 0.16411527752E+02 0.18858694930E+02
 0.21678909659E+02 0.24827622275E+02 0.28227040926E+02 0.31763495820E+02 0.35285838008E+02
 0.38605947271E+02 0.41510675212E+02 0.43783094938E+02 0.45233976796E+02 0.37611986938E+02
 0.37201338635E+02 0.36008232553E+02 0.34141665254E+02 0.31761688940E+02 0.29052963568E+02
 0.26199171621E+02 0.23362507605E+02 0.20672104311E+02 0.18218751958E+02 0.16055302602E+02
 0.14199253068E+02 0.12635851287E+02 0.11315106931E+02 0.10187734185E+02 0.92410829577E+01
 0.84617900054E+01 0.78289176687E+01 0.73200293276E+01 0.69145924039E+01 0.65967325837E+01
 0.63558584787E+01 0.61860290103E+01 0.60846367951E+01 0.60508758085E+01 0.60846367951E+01
 0.61860290103E+01 0.63558584787E+01 0.65967325837E+01 0.69145924039E+01 0.73200293276E+01
 0.78289176687E+01 0.84617900054E+01 0.92410829577E+01 0.10187734185E+02 0.11315106931E+02
 0.12635851287E+02 0.14199253068E+02 0.16055302602E+02 0.18218751958E+02 0.20672104311E+02
 0.23362507605E+02 0.26199171621E+02 0.29052963568E+02 0.31761688940E+02 0.34141665254E+02
 0.36008232553E+02 0.37201338635E+02 0.30082688112E+02 0.29764924332E+02 0.28842379081E+02
 0.27401814365E+02 0.25570739958E+02 0.23496810341E+02 0.21326503602E+02 0.19187694617E+02
 0.17178361572E+02 0.15362424219E+02 0.13770070605E+02 0.12398186360E+02 0.11214181000E+02
 0.10187734185E+02 0.93136054500E+01 0.85833570622E+01 0.79813847408E+01 0.74897698016E+01
 0.70907683478E+01 0.67698425787E+01 0.65161302319E+01 0.63227098441E+01 0.61857970859E+01
 0.61039075516E+01 0.60766111864E+01 0.61039075516E+01 0.61857970859E+01 0.63227098441E+01
 0.65161302319E+01 0.67698425787E+01 0.70907683478E+01 0.74897698016E+01 0.79813847408E+01
 0.85833570622E+01 0.93136054500E+01 0.10187734185E+02 0.11214181000E+02 0.12398186360E+02
 0.13770070605E+02 0.15362424219E+02 0.17178361572E+02 0.19187694617E+02 0.21326503602E+02
 0.23496810341E+02 0.25570739958E+02 0.27401814365E+02 0.28842379081E+02 0.29764924332E+02
 0.23628928215E+02 0.23398896681E+02 0.22731650814E+02 0.21691549896E+02 0.20373014873E+02
 0.18884765184E+02 0.17333524388E+02 0.15810742298E+02 0.14383751141E+02 0.13090854360E+02
 0.11940089292E+02 0.10918693833E+02 0.10017934977E+02 0.92410829577E+01 0.85833570622E+01
 0.80340813914E+01 0.75797551952E+01 0.72060926701E+01 0.69008029123E+01 0.66537272602E+01
 0.64576038718E+01 0.63077792283E+01 0.62018146500E+01 0.61385069317E+01 0.61174545441E+01
 0.61385069317E+01 0.62018146500E+01 0.63077792283E+01 0.64576038718E+01 0.66537272602E+01
 0.69008029123E+01 0.72060926701E+01 0.75797551952E+01 0.80340813914E+01 0.85833570622E+01
 0.92410829577E+01 0.10017934977E+02 0.10918693833E+02 0.11940089292E+02 0.13090854360E+02
 0.14383751141E+02 0.15810742298E+02 0.17333524388E+02 0.18884765184E+02 0.20373014873E+02
 0.21691549896E+02 0.22731650814E+02 0.23398896681E+02 0.18518899184E+02 0.18362768122E+02
 0.17910010689E+02 0.17204543127E+02 0.16310544598E+02 0.15301262401E+02 0.14247346904E+02
 0.13206405248E+02 0.12216401263E+02 0.11295308968E+02 0.10450797910E+02 0.96927270164E+01
 0.90302772262E+01 0.84617900054E+01 0.79813847408E+01 0.75797551952E+01 0.72461410303E+01
 0.69709297725E+01 0.67454013136E+01 0.65627853473E+01 0.64182376189E+01 0.63086065932E+01
 0.62316904270E+01 0.61861111066E+01 0.61709954034E+01 0.61861111066E+01 0.62316904270E+01
 0.63086065932E+01 0.64182376189E+01 0.65627853473E+01 0.67454013136E+01 0.69709297725E+01
 0.72461410303E+01 0.75797551952E+01 0.79813847408E+01 0.84617900054E+01 0.90302772262E+01
 0.96927270164E+01 0.10450797910E+02 0.11295308968E+02 0.12216401263E+02 0.13206405248E+02
 0.14247346904E+02 0.15301262401E+02 0.16310544598E+02 0.17204543127E+02 0.17910010689E+02
 0.18362768122E+02 0.14745004740E+02 0.14644135317E+02 0.14351194454E+02 0.13893170632E+02
 0.13309041596E+02 0.12642226378E+02 0.11933188723E+02 0.11214929328E+02 0.10512798739E+02
 0.98484986932E+01 0.92409912185E+01 0.87011815549E+01 0.82308935278E+01 0.78289176687E+01
 0.74897698016E+01 0.72060926701E+01 0.69709297725E+01 0.67774455004E+01 0.66198504758E+01
 0.64937241486E+01 0.63957178750E+01 0.63229508463E+01 0.62729962123E+01 0.62438722876E+01
 0.62343221908E+01 0.62438722876E+01 0.62729962123E+01 0.63229508463E+01 0.63957178750E+01
 0.64937241486E+01 0.66198504758E+01 0.67774455004E+01 0.69709297725E+01 0.72060926701E+01
 0.74897698016E+01 0.78289176687E+01 0.82308935278E+01 0.87011815549E+01 0.92409912185E+01
 0.98484986932E+01 0.10512798739E+02 0.11214929328E+02 0.11933188723E+02 0.12642226378E+02
 0.13309041596E+02 0.13893170632E+02 0.14351194454E+02 0.14644135317E+02 0.12059510902E+02
 0.11993966560E+02 0.11802618879E+02 0.11500371560E+02 0.11108855012E+02 0.10653654067E+02
 0.10161108550E+02 0.96571808808E+01 0.91656264812E+01 0.87048933157E+01 0.82858509237E+01
 0.79144637953E+01 0.75932782130E+01 0.73200293276E+01 0.70907683478E+01 0.69008029123E+01
 0.67454013136E+01 0.66198504758E+01 0.65203903754E+01 0.64439311404E+01 0.63874272462E+01
 0.63477626256E+01 0.63219957008E+01 0.63076557479E+01 0.63030737190E+01 0.63076557479E+01
 0.63219957008E+01 0.63477626256E+01 0.63874272462E+01 0.64439311404E+01 0.65203903754E+01
 0.66198504758E+01 0.67454013136E+01 0.69008029123E+01 0.70907683478E+01 0.73200293276E+01
 0.75932782130E+01 0.79144637953E+01 0.82858509237E+01 0.87048933157E+01 0.91656264812E+01
 0.96571808808E+01 0.10161108550E+02 0.10653654067E+02 0.11108855012E+02 0.11500371560E+02
 0.11802618879E+02 0.11993966560E+02 0.10100251462E+02 0.10055762147E+02 0.99256275317E+01
 0.97194169889E+01 0.94518319308E+01 0.91409855594E+01 0.88063987655E+01 0.84662574177E+01
 0.81355874965E+01 0.78259866779E+01 0.75463089077E+01 0.73010893996E+01 0.70907075512E+01
 0.69145924039E+01 0.67698425787E+01 0.66537272602E+01 0.65627853473E+01 0.64937241486E+01
 0.64439311404E+01 0.64104961673E+01 0.63900641447E+01 0.63790951452E+01 0.63742378389E+01
 0.63726197627E+01 0.63723148914E+01 0.63726197627E+01 0.63742378389E+01 0.63790951452E+01
 0.63900641447E+01 0.64104961673E+01 0.64439311404E+01 0.64937241486E+01 0.65627853473E+01
 0.66537272602E+01 0.67698425787E+01 0.69145924039E+01 0.70907075512E+01 0.73010893996E+01
 0.75463089077E+01 0.78259866779E+01 0.81355874965E+01 0.84662574177E+01 0.88063987655E+01
 0.91409855594E+01 0.94518319308E+01 0.97194169889E+01 0.99256275317E+01 0.10055762147E+02
 0.86702054941E+01 0.86406549662E+01 0.85542973475E+01 0.84175856278E+01 0.82403820784E+01
 0.80345562795E+01 0.78127139371E+01 0.75871660510E+01 0.73691580789E+01 0.71673513836E+01
 0.69869727795E+01 0.68309730152E+01 0.67012646292E+01 0.65967325837E+01 0.65161302319E+01
 0.64576038718E+01 0.64182376189E+01 0.63957178750E+01 0.63874272462E+01 0.63900641447E+01
 0.63997691311E+01 0.64126955545E+01 0.64251225168E+01 0.64340030654E+01 0.64371988291E+01
 0.64340030654E+01 0.64251225168E+01 0.64126955545E+01 0.63997691311E+01 0.63900641447E+01
 0.63874272462E+01 0.63957178750E+01 0.64182376189E+01 0.64576038718E+01 0.65161302319E+01
 0.65967325837E+01 0.67012646292E+01 0.68309730152E+01 0.69869727795E+01 0.71673513836E+01
 0.73691580789E+01 0.75871660510E+01 0.78127139371E+01 0.80345562795E+01 0.82403820784E+01
 0.84175856278E+01 0.85542973475E+01 0.86406549662E+01 0.76821073175E+01 0.76624297316E+01
 0.76048807501E+01 0.75136987307E+01 0.73954760756E+01 0.72584120389E+01 0.71115126320E+01
 0.69632946659E+01 0.68209925056E+01 0.66904600923E+01 0.65767236223E+01 0.64826061102E+01
 0.64089154960E+01 0.63558584787E+01 0.63227098441E+01 0.63077792283E+01 0.63086065932E+01
 0.63229508463E+01 0.63477626256E+01 0.63790951452E+01 0.64126955545E+01 0.64443896293E+01
 0.64703451076E+01 0.64873582597E+01 0.64932801575E+01 0.64873582597E+01 0.64703451076E+01
 0.64443896293E+01 0.64126955545E+01 0.63790951452E+01 0.63477626256E+01 0.63229508463E+01
 0.63086065932E+01 0.63077792283E+01 0.63227098441E+01 0.63558584787E+01 0.64089154960E+01
 0.64826061102E+01 0.65767236223E+01 0.66904600923E+01 0.68209925056E+01 0.69632946659E+01
 0.71115126320E+01 0.72584120389E+01 0.73954760756E+01 0.75136987307E+01 0.76048807501E+01
 0.76624297316E+01 0.70427731110E+01 0.70292275552E+01 0.69896196903E+01 0.69268968475E+01
 0.68455996959E+01 0.67513294803E+01 0.66501905146E+01 0.65485024429E+01 0.64524191724E+01
 0.63670621343E+01 0.62957276798E+01 0.62408115624E+01 0.62043505214E+01 0.61860290103E+01
 0.61857970859E+01 0.62018146500E+01 0.62316904270E+01 0.62729962123E+01 0.63219957008E+01
 0.63742378389E+01 0.64251225168E+01 0.64703451076E+01 0.65059484604E+01 0.65287300995E+01
 0.65365639308E+01 0.65287300995E+01 0.65059484604E+01 0.64703451076E+01 0.64251225168E+01
 0.63742378389E+01 0.63219957008E+01 0.62729962123E+01 0.62316904270E+01 0.62018146500E+01
 0.61857970859E+01 0.61860290103E+01 0.62043505214E+01 0.62408115624E+01 0.62957276798E+01
 0.63670621343E+01 0.64524191724E+01 0.65485024429E+01 0.66501905146E+01 0.67513294803E+01
 0.68455996959E+01 0.69268968475E+01 0.69896196903E+01 0.70292275552E+01 0.66878976070E+01
 0.66775133387E+01 0.66471092104E+01 0.65989220612E+01 0.65364621315E+01 0.64642939995E+01
 0.63876043294E+01 0.63115480983E+01 0.62406800059E+01 0.61791103233E+01 0.61307589731E+01
 0.60982762469E+01 0.60826691886E+01 0.60846367951E+01 0.61039075516E+01 0.61385069317E+01
 0.61861111066E+01 0.62438722876E+01 0.63076557479E+01 0.63726197627E+01 0.64340030654E+01
 0.64873582597E+01 0.65287300995E+01 0.65549243668E+01 0.65638972150E+01 0.65549243668E+01
 0.65287300995E+01 0.64873582597E+01 0.64340030654E+01 0.63726197627E+01 0.63076557479E+01
 0.62438722876E+01 0.61861111066E+01 0.61385069317E+01 0.61039075516E+01 0.60846367951E+01
 0.60826691886E+01 0.60982762469E+01 0.61307589731E+01 0.61791103233E+01 0.62406800059E+01
 0.63115480983E+01 0.63876043294E+01 0.64642939995E+01 0.65364621315E+01 0.65989220612E+01
 0.66471092104E+01 0.66775133387E+01 0.65732389331E+01 0.65638972150E+01 0.65365639308E+01
 0.64932801575E+01 0.64371988291E+01 0.63723148914E+01 0.63030737190E+01 0.62343221908E+01
 0.61709954034E+01 0.61174545441E+01 0.60766111864E+01 0.60508758085E+01 0.60423079275E+01
 0.60508758085E+01 0.60766111864E+01 0.61174545441E+01 0.61709954034E+01 0.62343221908E+01
 0.63030737190E+01 0.63723148914E+01 0.64371988291E+01 0.64932801575E+01 0.65365639308E+01
 0.65638972150E+01 0.65732389331E+01 0.65638972150E+01 0.65365639308E+01 0.64932801575E+01
 0.64371988291E+01 0.63723148914E+01 0.63030737190E+01 0.62343221908E+01 0.61709954034E+01
 0.61174545441E+01 0.60766111864E+01 0.60508758085E+01 0.60423079275E+01 0.60508758085E+01
 0.60766111864E+01 0.61174545441E+01 0.61709954034E+01 0.62343221908E+01 0.63030737190E+01
 0.63723148914E+01 0.64371988291E+01 0.64932801575E+01 0.65365639308E+01 0.65638972150E+01
 0.66878976070E+01 0.66775133387E+01 0.66471092104E+01 0.65989220612E+01 0.65364621315E+01
 0.64642939995E+01 0.63876043294E+01 0.63115480983E+01 0.62406800059E+01 0.61791103233E+01
 0.61307589731E+01 0.60982762469E+01 0.60826691886E+01 0.60846367951E+01 0.61039075516E+01
 0.61385069317E+01 0.61861111066E+01 0.62438722876E+01 0.63076557479E+01 0.63726197627E+01
 0.64340030654E+01 0.64873582597E+01 0.65287300995E+01 0.65549243668E+01 0.65638972150E+01
 0.65549243668E+01 0.65287300995E+01 0.64873582597E+01 0.64340030654E+01 0.63726197627E+01
 0.63076557479E+01 0.62438722876E+01 0.61861111066E+01 0.61385069317E+01 0.61039075516E+01
 0.60846367951E+01 0.60826691886E+01 0.60982762469E+01 0.61307589731E+01 0.61791103233E+01
 0.62406800059E+01 0.63115480983E+01 0.63876043294E+01 0.64642939995E+01 0.65364621315E+01
 0.65989220612E+01 0.66471092104E+01 0.66775133387E+01 0.70427731110E+01 0.70292275552E+01
 0.69896196903E+01 0.69268968475E+01 0.68455996959E+01 0.67513294803E+01 0.66501905146E+01
 0.65485024429E+01 0.64524191724E+01 0.63670621343E+01 0.62957276798E+01 0.62408115624E+01
 0.62043505214E+01 0.61860290103E+01 0.61857970859E+01 0.62018146500E+01 0.62316904270E+01
 0.62729962123E+01 0.63219957008E+01 0.63742378389E+01 0.64251225168E+01 0.64703451076E+01
 0.65059484604E+01 0.65287300995E+01 0.65365639308E+01 0.65287300995E+01 0.65059484604E+01
 0.64703451076E+01 0.64251225168E+01 0.63742378389E+01 0.63219957008E+01 0.62729962123E+01
 0.62316904270E+01 0.62018146500E+01 0.61857970859E+01 0.61860290103E+01 0.62043505214E+01
 0.62408115624E+01 0.62957276798E+01 0.63670621343E+01 0.64524191724E+01 0.65485024429E+01
 0.66501905146E+01 0.67513294803E+01 0.68455996959E+01 0.69268968475E+01 0.69896196903E+01
 0.70292275552E+01 0.76821073175E+01 0.76624297316E+01 0.76048807501E+01 0.75136987307E+01
 0.73954760756E+01 0.72584120389E+01 0.71115126320E+01 0.69632946659E+01 0.68209925056E+01
 0.66904600923E+01 0.65767236223E+01 0.64826061102E+01 0.64089154960E+01 0.63558584787E+01
 0.63227098441E+01 0.63077792283E+01 0.63086065932E+01 0.63229508463E+01 0.63477626256E+01
 0.63790951452E+01 0.64126955545E+01 0.64443896293E+01 0.64703451076E+01 0.64873582597E+01
 0.64932801575E+01 0.64873582597E+01 0.64703451076E+01 0.64443896293E+01 0.64126955545E+01
 0.63790951452E+01 0.63477626256E+01 0.63229508463E+01 0.63086065932E+01 0.63077792283E+01
 0.63227098441E+01 0.63558584787E+01 0.64089154960E+01 0.64826061102E+01 0.65767236223E+01
 0.66904600923E+01 0.68209925056E+01 0.69632946659E+01 0.71115126320E+01 0.72584120389E+01
 0.73954760756E+01 0.75136987307E+01 0.76048807501E+01 0.76624297316E+01 0.86702054941E+01
 0.86406549662E+01 0.85542973475E+01 0.84175856278E+01 0.82403820784E+01 0.80345562795E+01
 0.78127139371E+01 0.75871660510E+01 0.73691580789E+01 0.71673513836E+01 0.69869727795E+01
 0.68309730152E+01 0.67012646292E+01 0.65967325837E+01 0.65161302319E+01 0.64576038718E+01
 0.64182376189E+01 0.63957178750E+01 0.63874272462E+01 0.63900641447E+01 0.63997691311E+01
 0.64126955545E+01 0.64251225168E+01 0.64340030654E+01 0.64371988291E+01 0.64340030654E+01
 0.64251225168E+01 0.64126955545E+01 0.63997691311E+01 0.63900641447E+01 0.63874272462E+01
 0.63957178750E+01 0.64182376189E+01 0.64576038718E+01 0.65161302319E+01 0.65967325837E+01
 0.67012646292E+01 0.68309730152E+01 0.69869727795E+01 0.71673513836E+01 0.73691580789E+01
 0.75871660510E+01 0.78127139371E+01 0.80345562795E+01 0.82403820784E+01 0.84175856278E+01
 0.85542973475E+01 0.86406549662E+01 0.10100251462E+02 0.10055762147E+02 0.99256275317E+01
 0.97194169889E+01 0.94518319308E+01 0.91409855594E+01 0.88063987655E+01 0.84662574177E+01
 0.81355874965E+01 0.78259866779E+01 0.75463089077E+01 0.73010893996E+01 0.70907075512E+01
 0.69145924039E+01 0.67698425787E+01 0.66537272602E+01 0.65627853473E+01 0.64937241486E+01
 0.64439311404E+01 0.64104961673E+01 0.63900641447E+01 0.63790951452E+01 0.63742378389E+01
 0.63726197627E+01 0.63723148914E+01 0.63726197627E+01 0.63742378389E+01 0.63790951452E+01
 0.63900641447E+01 0.64104961673E+01 0.64439311404E+01 0.64937241486E+01 0.65627853473E+01
 0.66537272602E+01 0.67698425787E+01 0.69145924039E+01 0.70907075512E+01 0.73010893996E+01
 0.75463089077E+01 0.78259866779E+01 0.81355874965E+01 0.84662574177E+01 0.88063987655E+01
 0.91409855594E+01 0.94518319308E+01 0.97194169889E+01 0.99256275317E+01 0.10055762147E+02
 0.12059510902E+02 0.11993966560E+02 0.11802618879E+02 0.11500371560E+02 0.11108855012E+02
 0.10653654067E+02 0.10161108550E+02 0.96571808808E+01 0.91656264812E+01 0.87048933157E+01
 0.82858509237E+01 0.79144637953E+01 0.75932782130E+01 0.73200293276E+01 0.70907683478E+01
 0.69008029123E+01 0.67454013136E+01 0.66198504758E+01 0.65203903754E+01 0.64439311404E+01
 0.63874272462E+01 0.63477626256E+01 0.63219957008E+01 0.63076557479E+01 0.63030737190E+01
 0.63076557479E+01 0.63219957008E+01 0.63477626256E+01 0.63874272462E+01 0.64439311404E+01
 0.65203903754E+01 0.66198504758E+01 0.67454013136E+01 0.69008029123E+01 0.70907683478E+01
 0.73200293276E+01 0.75932782130E+01 0.79144637953E+01 0.82858509237E+01 0.87048933157E+01
 0.91656264812E+01 0.96571808808E+01 0.10161108550E+02 0.10653654067E+02 0.11108855012E+02
 0.11500371560E+02 0.11802618879E+02 0.11993966560E+02 0.14745004740E+02 0.14644135317E+02
 0.14351194454E+02 0.13893170632E+02 0.13309041596E+02 0.12642226378E+02 0.11933188723E+02
 0.11214929328E+02 0.10512798739E+02 0.98484986932E+01 0.92409912185E+01 0.87011815549E+01
 0.82308935278E+01 0.78289176687E+01 0.74897698016E+01 0.72060926701E+01 0.69709297725E+01
 0.67774455004E+01 0.66198504758E+01 0.64937241486E+01 0.63957178750E+01 0.63229508463E+01
 0.62729962123E+01 0.62438722876E+01 0.62343221908E+01 0.62438722876E+01 0.62729962123E+01
 0.63229508463E+01 0.63957178750E+01 0.64937241486E+01 0.66198504758E+01 0.67774455004E+01
 0.69709297725E+01 0.72060926701E+01 0.74897698016E+01 0.78289176687E+01 0.82308935278E+01
 0.87011815549E+01 0.92409912185E+01 0.98484986932E+01 0.10512798739E+02 0.11214929328E+02
 0.11933188723E+02 0.12642226378E+02 0.13309041596E+02 0.13893170632E+02 0.14351194454E+02
 0.14644135317E+02 0.18518899184E+02 0.18362768122E+02 0.17910010689E+02 0.17204543127E+02
 0.16310544598E+02 0.15301262401E+02 0.14247346904E+02 0.13206405248E+02 0.12216401263E+02
 0.11295308968E+02 0.10450797910E+02 0.96927270164E+01 0.90302772262E+01 0.84617900054E+01
 0.79813847408E+01 0.75797551952E+01 0.72461410303E+01 0.69709297725E+01 0.67454013136E+01
 0.65627853473E+01 0.64182376189E+01 0.63086065932E+01 0.62316904270E+01 0.61861111066E+01
 0.61709954034E+01 0.61861111066E+01 0.62316904270E+01 0.63086065932E+01 0.64182376189E+01
 0.65627853473E+01 0.67454013136E+01 0.69709297725E+01 0.72461410303E+01 0.75797551952E+01
 0.79813847408E+01 0.84617900054E+01 0.90302772262E+01 0.96927270164E+01 0.10450797910E+02
 0.11295308968E+02 0.12216401263E+02 0.13206405248E+02 0.14247346904E+02 0.15301262401E+02
 0.16310544598E+02 0.17204543127E+02 0.17910010689E+02 0.18362768122E+02 0.23628928215E+02
 0.23398896681E+02 0.22731650814E+02 0.21691549896E+02 0.20373014873E+02 0.18884765184E+02
 0.17333524388E+02 0.15810742298E+02 0.14383751141E+02 0.13090854360E+02 0.11940089292E+02
 0.10918693833E+02 0.10017934977E+02 0.92410829577E+01 0.85833570622E+01 0.80340813914E+01
 0.75797551952E+01 0.72060926701E+01 0.69008029123E+01 0.66537272602E+01 0.64576038718E+01
 0.63077792283E+01 0.62018146500E+01 0.61385069317E+01 0.61174545441E+01 0.61385069317E+01
 0.62018146500E+01 0.63077792283E+01 0.64576038718E+01 0.66537272602E+01 0.69008029123E+01
 0.72060926701E+01 0.75797551952E+01 0.80340813914E+01 0.85833570622E+01 0.92410829577E+01
 0.10017934977E+02 0.10918693833E+02 0.11940089292E+02 0.13090854360E+02 0.14383751141E+02
 0.15810742298E+02 0.17333524388E+02 0.18884765184E+02 0.20373014873E+02 0.21691549896E+02