    2    2   80    1
  0.1590414E+02  0.3168449E-09  0.3168449E-09  0.3168449E-09  0.5000000E-15
  1.000000000000000E-004
  CAR 
 unknown system                          
     20     35     14
 
  0.0000000E+00  0.0000000E+00  0.0000000E+00  0.1371742E-02
    1       -2.524896   1.000000
    2        0.901192   1.000000
    3        0.901192   1.000000
    4        3.448399   1.000000
    5        3.448399   1.000000
    6        3.448399   1.000000
    7        5.923430   1.000000
    8        5.923430   1.000000
    9        7.407915   0.000237
   10        7.407915   0.000237
   11        7.407915   0.000237
   12       14.671720   0.000000
   13       14.671720   0.000000
   14       14.671720   0.000000
 
  0.1111111E+00  0.0000000E+00  0.0000000E+00  0.8230453E-02
    1       -2.275074   1.000000
    2        1.020846   1.000000
    3        1.063887   1.000000
    4        3.453711   1.000000
    5        3.453711   1.000000
    6        3.547325   1.000000
    7        5.725264   1.000000
    8        5.997504   1.000000
    9        7.001931   0.266363
   10        7.001931   0.266363
   11        7.260610   0.007084
   12       13.278884   0.000000
   13       15.372211   0.000000
   14       15.372211   0.000000
 
  0.2222222E+00  0.0000000E+00  0.0000000E+00  0.8230453E-02
    1       -1.553888   1.000000
    2        1.372987   1.000000
    3        1.472344   1.000000
    4        3.495760   1.000000
    5        3.495760   1.000000
    6        3.837770   1.000000
    7        5.178236   1.000000
    8        6.123614   1.000000
    9        6.123614   1.000000
   10        6.191346   1.000000
   11        6.849593   0.674848
   12       10.906678   0.000000
   13       17.120189   0.000000
   14       17.120189   0.000000
 
  0.3333333E+00  0.0000000E+00  0.0000000E+00  0.8230453E-02
    1       -0.459142   1.000000
    2        1.851301   1.000000
    3        1.936873   1.000000
    4        3.636650   1.000000
    5        3.636650   1.000000
    6        4.299174   1.000000
    7        4.399316   1.000000
    8        5.212824   1.000000
    9        5.212824   1.000000
   10        6.253948   0.999998
   11        6.435269   0.999642
   12        8.757947   0.000000
   13       19.430789   0.000000
   14       19.430790   0.000000
 
  0.4444444E+00  0.0000000E+00  0.0000000E+00  0.8230453E-02
    1        0.783082   1.000000
    2        1.704217   1.000000
    3        2.674474   1.000000
    4        3.524994   1.000000
    5        3.944427   1.000000
    6        3.944427   1.000000
    7        4.466964   1.000000
    8        4.466964   1.000000
    9        4.895315   1.000000
   10        5.571763   1.000000
   11        6.716550   0.918356
   12        7.329761   0.001631
   13       21.398479   0.000000
   14       22.026022   0.000000
 
  0.1111111E+00  0.1111111E+00  0.0000000E+00  0.1646091E-01
    1       -2.034281   1.000000
    2        1.146898   1.000000
    3        1.213143   1.000000
    4        3.262540   1.000000
    5        3.444514   1.000000
    6        3.844650   1.000000
    7        5.708404   1.000000
    8        5.939040   1.000000
    9        6.370121   0.999939
   10        6.588973   0.989168
   11        7.466193   0.000047
   12       13.774533   0.000000
   13       14.134394   0.000000
   14       15.937342   0.000000
 
  0.2222222E+00  0.1111111E+00  0.0000000E+00  0.3292181E-01
    1       -1.345283   1.000000
    2        1.456327   1.000000
    3        1.634259   1.000000
    4        3.149863   1.000000
    5        3.449993   1.000000
    6        4.291772   1.000000
    7        5.316953   1.000000
    8        5.451422   1.000000
    9        5.749108   1.000000
   10        6.107823   1.000000
   11        7.308423   0.002627
   12       11.516561   0.000000
   13       15.512787   0.000000
   14       17.449333   0.000000
 
  0.3333333E+00  0.1111111E+00  0.0000000E+00  0.3292181E-01
    1       -0.321496   1.000000
    2        1.815220   1.000000
    3        2.124484   1.000000
    4        3.190242   1.000000
    5        3.493986   1.000000
    6        4.581313   1.000000
    7        4.755180   1.000000
    8        4.848553   1.000000
    9        5.023949   1.000000
   10        6.374172   0.999932
   11        6.827098   0.729866
   12        9.234943   0.000000
   13       17.340752   0.000000
   14       19.572207   0.000000
 
  0.4444444E+00  0.1111111E+00  0.0000000E+00  0.3292181E-01
    1        0.802464   1.000000
    2        1.647382   1.000000
    3        2.713875   1.000000
    4        3.305083   1.000000
    5        3.426963   1.000000
    6        3.890400   1.000000
    7        4.495382   1.000000
    8        4.665283   1.000000
    9        5.494599   1.000000
   10        6.181626   1.000000
   11        6.717681   0.917142
   12        7.547975   0.000004
   13       19.032123   0.000000
   14       20.648753   0.000000
 
  0.2222222E+00  0.2222222E+00  0.0000000E+00  0.1646091E-01
    1       -0.774442   1.000000
    2        1.575964   1.000000
    3        2.131829   1.000000
    4        2.820800   1.000000
    5        3.439725   1.000000
    6        4.518171   1.000000
    7        4.953190   1.000000
    8        5.104092   1.000000
    9        5.491294   1.000000
   10        6.002136   1.000000
   11        7.615906   0.000000
   12       12.591685   0.000000
   13       13.165833   0.000000
   14       18.443627   0.000000
 
  0.3333333E+00  0.2222222E+00  0.0000000E+00  0.3292181E-01
    1       -0.011321   1.000000
    2        1.570014   1.000000
    3        2.677568   1.000000
    4        2.752583   1.000000
    5        3.598770   1.000000
    6        3.704955   1.000000
    7        4.816406   1.000000
    8        5.316737   1.000000
    9        5.667206   1.000000
   10        6.215829   1.000000
   11        7.491530   0.000022
   12       10.224542   0.000000
   13       14.608389   0.000000
   14       20.089956   0.000000
 
  0.4444444E+00  0.2222222E+00  0.0000000E+00  0.3292181E-01
    1        0.714403   1.000000
    2        1.268324   1.000000
    3        2.765359   1.000000
    4        3.108352   1.000000
    5        3.294358   1.000000
    6        3.650729   1.000000
    7        5.025456   1.000000
    8        5.215584   1.000000
    9        6.384662   0.999908
   10        6.718726   0.916007
   11        7.031576   0.202289
   12        8.075589   0.000000
   13       16.315661   0.000000
   14       18.174362   0.000000
 
  0.3333333E+00  0.3333333E+00  0.0000000E+00  0.1646091E-01
    1        0.275584   1.000000
    2        1.190358   1.000000
    3        2.360536   1.000000
    4        2.983156   1.000000
    5        3.604150   1.000000
    6        4.258952   1.000000
    7        4.932079   1.000000
    8        5.659986   1.000000
    9        6.118014   1.000000
   10        6.477248   0.998986
   11        7.790506   0.000000
   12       10.381222   0.000000
   13       13.081844   0.000000
   14       17.948189   0.000000
 
  0.4444444E+00  0.3333333E+00  0.0000000E+00  0.3292181E-01
    1        0.515852   1.000000
    2        0.810992   1.000000
    3        2.294097   1.000000
    4        2.502136   1.000000
    5        4.354737   1.000000
    6        4.735895   1.000000
    7        5.356142   1.000000
    8        5.723630   1.000000
    9        6.685453   0.946735
   10        7.179160   0.030256
   11        7.659464   0.000000
   12        8.492943   0.000000
   13       14.052418   0.000000
   14       15.786716   0.000000
 
  0.4444444E+00  0.4444444E+00  0.0000000E+00  0.1646091E-01
    1        0.409503   1.000000
    2        0.503012   1.000000
    3        2.080277   1.000000
    4        2.149835   1.000000
    5        5.503735   1.000000
    6        5.611947   1.000000
    7        5.664081   1.000000
    8        6.222177   0.999999
    9        6.672266   0.956111
   10        7.727180   0.000000
   11        7.907123   0.000000
   12        8.005921   0.000000
   13       13.129282   0.000000
   14       13.925382   0.000000
 
  0.1111111E+00  0.1111111E+00  0.1111111E+00  0.1097394E-01
    1       -1.799639   1.000000
    2        1.315778   1.000000
    3        1.315778   1.000000
    4        3.243619   1.000000
    5        3.243619   1.000000
    6        4.157128   1.000000
    7        5.557960   1.000000
    8        5.802358   1.000000
    9        5.802358   1.000000
   10        7.065085   0.142215
   11        7.065085   0.142215
   12       13.946478   0.000000
   13       14.805688   0.000000
   14       14.805688   0.000000
 
  0.2222222E+00  0.1111111E+00  0.1111111E+00  0.3292181E-01
    1       -1.133500   1.000000
    2        1.612825   1.000000
    3        1.727946   1.000000
    4        3.071993   1.000000
    5        3.203668   1.000000
    6        4.620551   1.000000
    7        4.698780   1.000000
    8        5.430293   1.000000
    9        6.038261   1.000000
   10        6.218494   1.000000
   11        7.123418   0.069052
   12       12.042160   0.000000
   13       15.371749   0.000000
   14       16.440080   0.000000
 
  0.3333333E+00  0.1111111E+00  0.1111111E+00  0.3292181E-01
    1       -0.163360   1.000000
    2        2.017769   1.000000
    3        2.066303   1.000000
    4        3.119827   1.000000
    5        3.155445   1.000000
    6        3.973474   1.000000
    7        4.951953   1.000000
    8        5.343269   1.000000
    9        5.384494   1.000000
   10        6.329192   0.999982
   11        6.768951   0.846979
   12        9.766428   0.000000
   13       16.785953   0.000000
   14       18.500422   0.000000
 
  0.4444444E+00  0.1111111E+00  0.1111111E+00  0.3292181E-01
    1        0.869741   1.000000
    2        1.686809   1.000000
    3        2.589102   1.000000
    4        2.999240   1.000000
    5        3.419602   1.000000
    6        3.738547   1.000000
    7        4.642097   1.000000
    8        4.801023   1.000000
    9        5.928421   1.000000
   10        6.300703   0.999993
   11        6.813392   0.760936
   12        7.956933   0.000000
   13       18.306261   0.000000
   14       19.995733   0.000000
 
  0.2222222E+00  0.2222222E+00  0.1111111E+00  0.3292181E-01
    1       -0.556211   1.000000
    2        1.781805   1.000000
    3        2.181755   1.000000
    4        2.783040   1.000000
    5        3.117887   1.000000
    6        3.747278   1.000000
    7        5.412574   1.000000
    8        5.585502   1.000000
    9        5.807727   1.000000
   10        5.958850   1.000000
   11        7.209734   0.018164
   12       13.176017   0.000000
   13       13.241540   0.000000
   14       17.004140   0.000000
 
  0.3333333E+00  0.2222222E+00  0.1111111E+00  0.6584362E-01
    1        0.198620   1.000000
    2        1.769847   1.000000
    3        2.643658   1.000000
    4        2.647604   1.000000
    5        3.225486   1.000000
    6        3.343067   1.000000
    7        5.279535   1.000000
    8        5.381964   1.000000
    9        6.108287   1.000000
   10        6.309301   0.999990
   11        7.080486   0.119136
   12       10.798565   0.000000
   13       14.594997   0.000000
   14       18.430366   0.000000
 
  0.4444444E+00  0.2222222E+00  0.1111111E+00  0.6584362E-01
    1        0.879019   1.000000
    2        1.413027   1.000000
    3        2.674751   1.000000
    4        2.728533   1.000000
    5        3.468938   1.000000
    6        3.496016   1.000000
    7        5.147293   1.000000
    8        5.200505   1.000000
    9        6.313134   0.999989
   10        6.644938   0.971314
   11        7.335697   0.001423
   12        8.788258   0.000000
   13       16.154943   0.000000
   14       18.004154   0.000000
 
  0.3333333E+00  0.3333333E+00  0.1111111E+00  0.3292181E-01
    1        0.513849   1.000000
    2        1.362170   1.000000
    3        2.337050   1.000000
    4        2.784629   1.000000
    5        3.553153   1.000000
    6        3.767977   1.000000
    7        5.220874   1.000000
    8        5.674138   1.000000
    9        6.118673   1.000000
   10        7.148984   0.048089
   11        7.277381   0.005062
   12       11.184120   0.000000
   13       12.968231   0.000000
   14       17.890675   0.000000
 
  0.4444444E+00  0.3333333E+00  0.1111111E+00  0.6584362E-01
    1        0.728837   1.000000
    2        0.989090   1.000000
    3        2.273913   1.000000
    4        2.443300   1.000000
    5        4.241900   1.000000
    6        4.391112   1.000000
    7        5.458737   1.000000
    8        5.670721   1.000000
    9        6.347310   0.999969
   10        6.954826   0.385613
   11        8.140903   0.000000
   12        9.524162   0.000000
   13       13.965447   0.000000
   14       15.701523   0.000000
 
  0.4444444E+00  0.4444444E+00  0.1111111E+00  0.3292181E-01
    1        0.628399   1.000000
    2        0.706667   1.000000
    3        2.075497   1.000000
    4        2.140753   1.000000
    5        5.260793   1.000000
    6        5.508559   1.000000
    7        5.694652   1.000000
    8        5.874577   1.000000
    9        6.229924   0.999999
   10        6.797682   0.794008
   11        8.902878   0.000000
   12        9.575431   0.000000
   13       12.981457   0.000000
   14       13.819850   0.000000
 
  0.2222222E+00  0.2222222E+00  0.2222222E+00  0.1097394E-01
    1        0.031015   1.000000
    2        2.311029   1.000000
    3        2.311029   1.000000
    4        2.698597   1.000000
    5        2.698597   1.000000
    6        2.871313   1.000000
    7        5.829510   1.000000
    8        5.829510   1.000000
    9        6.282269   0.999996
   10        6.433098   0.999661
   11        6.433098   0.999661
   12       13.177094   0.000000
   13       14.733829   0.000000
   14       14.733829   0.000000
 
  0.3333333E+00  0.2222222E+00  0.2222222E+00  0.3292181E-01
    1        0.728780   1.000000
    2        2.060781   1.000000
    3        2.459727   1.000000
    4        2.624539   1.000000
    5        2.652413   1.000000
    6        3.084013   1.000000
    7        5.637515   1.000000
    8        5.785657   1.000000
    9        6.113096   1.000000
   10        6.579059   0.991017
   11        7.257139   0.007582
   12       11.810856   0.000000
   13       14.337460   0.000000
   14       16.522125   0.000000
 
  0.4444444E+00  0.2222222E+00  0.2222222E+00  0.3292181E-01
    1        1.188009   1.000000
    2        1.551588   1.000000
    3        2.555540   1.000000
    4        2.589329   1.000000
    5        3.123323   1.000000
    6        3.449627   1.000000
    7        5.466110   1.000000
    8        5.466189   1.000000
    9        6.280659   0.999996
   10        6.404871   0.999840
   11        8.400950   0.000000
   12        9.899037   0.000000
   13       15.430781   0.000000
   14       17.211211   0.000000
 
  0.3333333E+00  0.3333333E+00  0.2222222E+00  0.3292181E-01
    1        1.183591   1.000000
    2        1.667016   1.000000
    3        2.297787   1.000000
    4        2.633113   1.000000
    5        2.948855   1.000000
    6        3.375486   1.000000
    7        5.755683   1.000000
    8        5.846726   1.000000
    9        6.111097   1.000000
   10        6.563282   0.993391
   11        8.329346   0.000000
   12       12.711073   0.000000
   13       12.769916   0.000000
   14       16.686264   0.000000
 
  0.4444444E+00  0.3333333E+00  0.2222222E+00  0.6584362E-01
    1        1.277834   1.000000
    2        1.376587   1.000000
    3        2.287802   1.000000
    4        2.450173   1.000000
    5        3.604276   1.000000
    6        3.832444   1.000000
    7        5.740766   1.000000
    8        5.806168   1.000000
    9        6.253788   0.999998
   10        6.431442   0.999675
   11        9.471834   0.000000
   12       10.905543   0.000000
   13       13.822197   0.000000
   14       15.452325   0.000000
 
  0.4444444E+00  0.4444444E+00  0.2222222E+00  0.3292181E-01
    1        1.229560   1.000000
    2        1.235397   1.000000
    3        2.088786   1.000000
    4        2.177802   1.000000
    5        4.405177   1.000000
    6        4.484319   1.000000
    7        5.902835   1.000000
    8        5.951764   1.000000
    9        6.248546   0.999999
   10        6.365187   0.999947
   11       10.488724   0.000000
   12       11.421930   0.000000
   13       12.600512   0.000000
   14       13.619386   0.000000
 
  0.3333333E+00  0.3333333E+00  0.3333333E+00  0.1097394E-01
    1        1.643533   1.000000
    2        2.082021   1.000000
    3        2.312327   1.000000
    4        2.312327   1.000000
    5        3.062560   1.000000
    6        3.062560   1.000000
    7        6.080674   1.000000
    8        6.080674   1.000000
    9        6.151922   1.000000
   10        6.151922   1.000000
   11        9.523494   0.000000
   12       12.483609   0.000000
   13       14.580321   0.000000
   14       14.580323   0.000000
 
  0.4444444E+00  0.3333333E+00  0.3333333E+00  0.3292181E-01
    1        1.608139   1.000000
    2        1.792482   1.000000
    3        2.443626   1.000000
    4        2.711062   1.000000
    5        3.060166   1.000000
    6        3.417062   1.000000
    7        6.023186   1.000000
    8        6.034830   1.000000
    9        6.239708   0.999999
   10        6.275192   0.999997
   11       10.673419   0.000000
   12       11.865077   0.000000
   13       13.816725   0.000000
   14       14.859944   0.000000
 
  0.4444444E+00  0.4444444E+00  0.3333333E+00  0.3292181E-01
    1        1.770431   1.000000
    2        2.014919   1.000000
    3        2.186756   1.000000
    4        2.469943   1.000000
    5        3.464346   1.000000
    6        3.606517   1.000000
    7        6.134696   1.000000
    8        6.146280   1.000000
    9        6.267399   0.999998
   10        6.282902   0.999996
   11       11.614510   0.000000
   12       12.154777   0.000000
   13       13.397466   0.000000
   14       13.812386   0.000000
 
  0.4444444E+00  0.4444444E+00  0.4444444E+00  0.1097394E-01
    1        2.121910   1.000000
    2        2.442191   1.000000
    3        2.442191   1.000000
    4        2.909128   1.000000
    5        2.909128   1.000000
    6        2.980937   1.000000
    7        6.276129   0.999997
    8        6.276129   0.999997
    9        6.276819   0.999997
   10        6.276819   0.999997
   11       11.815671   0.000000
   12       11.862181   0.000000
   13       14.627753   0.000000
   14       15.418302   0.000000
