Starting job 28217939 ("jobfile") on c15-35 at Fri Sep 20 09:50:04 CEST 2019
 running on    4 total cores
 distrk:  each k-point on    4 cores,    1 groups
 distr:  one band on    2 cores,    2 groups
 using from now: INCAR     
 vasp.5.4.1 05Feb16 (build Mar 02 2016 14:09:44) complex                        
  
 POSCAR found type information on POSCAR  Pt
 POSCAR found :  1 types and       2 ions

 ----------------------------------------------------------------------------- 
|                                                                             |
|  ADVICE TO THIS USER RUNNING 'VASP/VAMP'   (HEAR YOUR MASTER'S VOICE ...):  |
|                                                                             |
|      You have a (more or less) 'small supercell' and for smaller cells      |
|      it is recommended  to use the reciprocal-space projection scheme!      |
|      The real space optimization is not  efficient for small cells and it   |
|      is also less accurate ...                                              |
|      Therefore set LREAL=.FALSE. in the  INCAR file                         |
|                                                                             |
 ----------------------------------------------------------------------------- 

 LDA part: xc-table for Pade appr. of Perdew
 POSCAR, INCAR and KPOINTS ok, starting setup
 FFT: planning ...
 WAVECAR not read
 entering main loop
       N       E                     dE             d eps       ncg     rms          rms(c)
DAV:   1     0.194784083476E+03    0.19478E+03   -0.95000E+03   996   0.138E+03
DAV:   2    -0.438538560183E+01   -0.19917E+03   -0.18558E+03  1004   0.415E+02
DAV:   3    -0.125278819002E+02   -0.81425E+01   -0.76918E+01  1226   0.904E+01
DAV:   4    -0.126585041217E+02   -0.13062E+00   -0.12986E+00  1072   0.113E+01
DAV:   5    -0.126615550548E+02   -0.30509E-02   -0.30508E-02  1196   0.159E+00    0.510E+00
RMM:   6    -0.120097242921E+02    0.65183E+00   -0.12052E+00   980   0.145E+01    0.171E+00
RMM:   7    -0.119536998222E+02    0.56024E-01   -0.35062E-01   981   0.576E+00    0.478E-01
RMM:   8    -0.119467462527E+02    0.69536E-02   -0.11947E-02   981   0.167E+00    0.115E-01
RMM:   9    -0.119466506956E+02    0.95557E-04   -0.17639E-03   991   0.360E-01    0.225E-02
RMM:  10    -0.119466677274E+02   -0.17032E-04   -0.15017E-04   946   0.162E-01    0.195E-02
RMM:  11    -0.119466608549E+02    0.68725E-05   -0.44379E-05   856   0.936E-02
   1 F= -.11946661E+02 E0= -.11927517E+02  d E =-.119467E+02
 BRION: g(F)=  0.141E-61 g(S)=  0.233E-04
 reached required accuracy - stopping structural energy minimisation
 writing wavefunctions

Currently Loaded Modulefiles:
  1) intel/2016.1       2) vasp/5.4.1.Feb16

Job script resource usage:
       JobID  MaxVMSize     MaxRSS 
------------ ---------- ---------- 
28217939.ba+    216752K      2526K 

Job step resource usage:
       JobID    JobName  AllocCPUS  MaxVMSize     MaxRSS    Elapsed ExitCode 
------------ ---------- ---------- ---------- ---------- ---------- -------- 
28217939        jobfile          4                         00:00:11      0:0 
28217939.0    pmi_proxy          1    279832K       522K   00:00:09      0:0 

Job 28217939 ("jobfile") completed on c15-35 at Fri Sep 20 09:50:13 CEST 2019
