<?xml version="1.0" encoding="ISO-8859-1"?>
<modeling>
 <generator>
  <i name="program" type="string">vasp </i>
  <i name="version" type="string">5.4.1  </i>
  <i name="subversion" type="string">05Feb16 (build Mar 02 2016 14:09:44) complex                          parallel </i>
  <i name="platform" type="string">Abel-impi-ifc-cuda </i>
  <i name="date" type="string">2019 09 20 </i>
  <i name="time" type="string">09:50:05 </i>
 </generator>
 <incar>
  <i type="string" name="PREC">accurate  ! normal/accurate</i>
  <i type="string" name="ALGO"> Fast      ! Algorithm for electronic re</i>
  <i type="logical" name="ADDGRID"> T  </i>
  <i type="int" name="ISPIN">     1</i>
  <i type="int" name="MAXMIX">    80</i>
  <i type="int" name="NELMIN">     4</i>
  <i type="int" name="IBRION">     1</i>
  <i name="EDIFF">      0.00001000</i>
  <i name="EDIFFG">     -0.01000000</i>
  <i type="int" name="NSW">    80</i>
  <i type="int" name="ISIF">     3</i>
  <i name="ENCUT">    500.00000000</i>
  <i type="string" name="LREAL"> Auto      ! Projection in reciprocal sp</i>
  <i type="int" name="ISMEAR">     0</i>
  <i name="SIGMA">      0.20000000</i>
  <i type="int" name="NWRITE">     1</i>
  <v type="int" name="KPOINT_BSE">    -1     0     0     0</v>
 </incar>
 <kpoints>
  <generation param="Gamma">
   <v type="int" name="divisions">       9        9        9 </v>
   <v name="usershift">      0.00000000       0.00000000       0.00000000 </v>
   <v name="genvec1">      0.11111111       0.00000000       0.00000000 </v>
   <v name="genvec2">      0.00000000       0.11111111       0.00000000 </v>
   <v name="genvec3">      0.00000000       0.00000000       0.11111111 </v>
   <v name="shift">      0.00000000       0.00000000       0.00000000 </v>
  </generation>
  <varray name="kpointlist" >
   <v>       0.00000000       0.00000000       0.00000000 </v>
   <v>       0.11111111       0.00000000       0.00000000 </v>
   <v>       0.22222222       0.00000000       0.00000000 </v>
   <v>       0.33333333       0.00000000       0.00000000 </v>
   <v>       0.44444444       0.00000000       0.00000000 </v>
   <v>       0.11111111       0.11111111       0.00000000 </v>
   <v>       0.22222222       0.11111111       0.00000000 </v>
   <v>       0.33333333       0.11111111       0.00000000 </v>
   <v>       0.44444444       0.11111111       0.00000000 </v>
   <v>       0.22222222       0.22222222       0.00000000 </v>
   <v>       0.33333333       0.22222222       0.00000000 </v>
   <v>       0.44444444       0.22222222       0.00000000 </v>
   <v>       0.33333333       0.33333333       0.00000000 </v>
   <v>       0.44444444       0.33333333       0.00000000 </v>
   <v>       0.44444444       0.44444444       0.00000000 </v>
   <v>       0.11111111       0.11111111       0.11111111 </v>
   <v>       0.22222222       0.11111111       0.11111111 </v>
   <v>       0.33333333       0.11111111       0.11111111 </v>
   <v>       0.44444444       0.11111111       0.11111111 </v>
   <v>       0.22222222       0.22222222       0.11111111 </v>
   <v>       0.33333333       0.22222222       0.11111111 </v>
   <v>       0.44444444       0.22222222       0.11111111 </v>
   <v>       0.33333333       0.33333333       0.11111111 </v>
   <v>       0.44444444       0.33333333       0.11111111 </v>
   <v>       0.44444444       0.44444444       0.11111111 </v>
   <v>       0.22222222       0.22222222       0.22222222 </v>
   <v>       0.33333333       0.22222222       0.22222222 </v>
   <v>       0.44444444       0.22222222       0.22222222 </v>
   <v>       0.33333333       0.33333333       0.22222222 </v>
   <v>       0.44444444       0.33333333       0.22222222 </v>
   <v>       0.44444444       0.44444444       0.22222222 </v>
   <v>       0.33333333       0.33333333       0.33333333 </v>
   <v>       0.44444444       0.33333333       0.33333333 </v>
   <v>       0.44444444       0.44444444       0.33333333 </v>
   <v>       0.44444444       0.44444444       0.44444444 </v>
  </varray>
  <varray name="weights" >
   <v>       0.00137174 </v>
   <v>       0.00823045 </v>
   <v>       0.00823045 </v>
   <v>       0.00823045 </v>
   <v>       0.00823045 </v>
   <v>       0.01646091 </v>
   <v>       0.03292181 </v>
   <v>       0.03292181 </v>
   <v>       0.03292181 </v>
   <v>       0.01646091 </v>
   <v>       0.03292181 </v>
   <v>       0.03292181 </v>
   <v>       0.01646091 </v>
   <v>       0.03292181 </v>
   <v>       0.01646091 </v>
   <v>       0.01097394 </v>
   <v>       0.03292181 </v>
   <v>       0.03292181 </v>
   <v>       0.03292181 </v>
   <v>       0.03292181 </v>
   <v>       0.06584362 </v>
   <v>       0.06584362 </v>
   <v>       0.03292181 </v>
   <v>       0.06584362 </v>
   <v>       0.03292181 </v>
   <v>       0.01097394 </v>
   <v>       0.03292181 </v>
   <v>       0.03292181 </v>
   <v>       0.03292181 </v>
   <v>       0.06584362 </v>
   <v>       0.03292181 </v>
   <v>       0.01097394 </v>
   <v>       0.03292181 </v>
   <v>       0.03292181 </v>
   <v>       0.01097394 </v>
  </varray>
 </kpoints>
 <parameters>
  <separator name="general" >
   <i type="string" name="SYSTEM">unknown system</i>
   <i type="logical" name="LCOMPAT"> F  </i>
  </separator>
  <separator name="electronic" >
   <i type="string" name="PREC">accura</i>
   <i name="ENMAX">    500.00000000</i>
   <i name="ENAUG">    358.96600000</i>
   <i name="EDIFF">      0.00001000</i>
   <i type="int" name="IALGO">    68</i>
   <i type="int" name="IWAVPR">    11</i>
   <i type="int" name="NBANDS">    14</i>
   <i name="NELECT">     20.00000000</i>
   <i type="int" name="TURBO">     0</i>
   <i type="int" name="IRESTART">     0</i>
   <i type="int" name="NREBOOT">     0</i>
   <i type="int" name="NMIN">     0</i>
   <i name="EREF">      0.00000000</i>
   <separator name="electronic smearing" >
    <i type="int" name="ISMEAR">     0</i>
    <i name="SIGMA">      0.20000000</i>
    <i name="KSPACING">      0.50000000</i>
    <i type="logical" name="KGAMMA"> T  </i>
   </separator>
   <separator name="electronic projectors" >
    <i type="logical" name="LREAL"> T  </i>
    <v name="ROPT">     -0.00025000</v>
    <i type="int" name="LMAXPAW">  -100</i>
    <i type="int" name="LMAXMIX">     2</i>
    <i type="logical" name="NLSPLINE"> F  </i>
   </separator>
   <separator name="electronic startup" >
    <i type="int" name="ISTART">     0</i>
    <i type="int" name="ICHARG">     2</i>
    <i type="int" name="INIWAV">     1</i>
   </separator>
   <separator name="electronic spin" >
    <i type="int" name="ISPIN">     1</i>
    <i type="logical" name="LNONCOLLINEAR"> F  </i>
    <v name="MAGMOM">      1.00000000      1.00000000</v>
    <i name="NUPDOWN">     -1.00000000</i>
    <i type="logical" name="LSORBIT"> F  </i>
    <v name="SAXIS">      0.00000000      0.00000000      1.00000000</v>
    <i type="logical" name="LSPIRAL"> F  </i>
    <v name="QSPIRAL">      0.00000000      0.00000000      0.00000000</v>
    <i type="logical" name="LZEROZ"> F  </i>
   </separator>
   <separator name="electronic exchange-correlation" >
    <i type="logical" name="LASPH"> F  </i>
    <i type="logical" name="LMETAGGA"> F  </i>
   </separator>
   <separator name="electronic convergence" >
    <i type="int" name="NELM">    60</i>
    <i type="int" name="NELMDL">    -5</i>
    <i type="int" name="NELMIN">     4</i>
    <i name="ENINI">    500.00000000</i>
    <separator name="electronic convergence detail" >
     <i type="logical" name="LDIAG"> T  </i>
     <i type="logical" name="LSUBROT"> F  </i>
     <i name="WEIMIN">      0.00100000</i>
     <i name="EBREAK">      0.00000018</i>
     <i name="DEPER">      0.30000000</i>
     <i type="int" name="NRMM">     4</i>
     <i name="TIME">      0.40000000</i>
    </separator>
   </separator>
   <separator name="electronic mixer" >
    <i name="AMIX">      0.40000000</i>
    <i name="BMIX">      1.00000000</i>
    <i name="AMIN">      0.10000000</i>
    <i name="AMIX_MAG">      1.60000000</i>
    <i name="BMIX_MAG">      1.00000000</i>
    <separator name="electronic mixer details" >
     <i type="int" name="IMIX">     4</i>
     <i type="logical" name="MIXFIRST"> F  </i>
     <i type="int" name="MAXMIX">    80</i>
     <i name="WC">    100.00000000</i>
     <i type="int" name="INIMIX">     1</i>
     <i type="int" name="MIXPRE">     1</i>
     <i type="int" name="MREMOVE">     5</i>
    </separator>
   </separator>
   <separator name="electronic dipolcorrection" >
    <i type="logical" name="LDIPOL"> F  </i>
    <i type="logical" name="LMONO"> F  </i>
    <i type="int" name="IDIPOL">     0</i>
    <i name="EPSILON">      1.00000000</i>
    <v name="DIPOL">   -100.00000000   -100.00000000   -100.00000000</v>
    <i name="EFIELD">      0.00000000</i>
   </separator>
  </separator>
  <separator name="grids" >
   <i type="int" name="NGX">    24</i>
   <i type="int" name="NGY">    24</i>
   <i type="int" name="NGZ">    24</i>
   <i type="int" name="NGXF">    48</i>
   <i type="int" name="NGYF">    48</i>
   <i type="int" name="NGZF">    48</i>
   <i type="logical" name="ADDGRID"> T  </i>
  </separator>
  <separator name="ionic" >
   <i type="int" name="NSW">    80</i>
   <i type="int" name="IBRION">     1</i>
   <i type="int" name="ISIF">     3</i>
   <i name="PSTRESS">      0.00000000</i>
   <i name="EDIFFG">     -0.01000000</i>
   <i type="int" name="NFREE">     0</i>
   <i name="POTIM">      0.50000000</i>
   <i name="SMASS">     -3.00000000</i>
   <i name="SCALEE">      1.00000000</i>
  </separator>
  <separator name="ionic md" >
   <i name="TEBEG">      0.00010000</i>
   <i name="TEEND">      0.00010000</i>
   <i type="int" name="NBLOCK">     1</i>
   <i type="int" name="KBLOCK">    80</i>
   <i type="int" name="NPACO">   256</i>
   <i name="APACO">     16.00000000</i>
  </separator>
  <separator name="symmetry" >
   <i type="int" name="ISYM">     2</i>
   <i name="SYMPREC">      0.00001000</i>
  </separator>
  <separator name="dos" >
   <i type="logical" name="LORBIT"> F  </i>
   <v name="RWIGS">     -1.00000000</v>
   <i type="int" name="NEDOS">   301</i>
   <i name="EMIN">     10.00000000</i>
   <i name="EMAX">    -10.00000000</i>
   <i name="EFERMI">      0.00000000</i>
  </separator>
  <separator name="writing" >
   <i type="int" name="NWRITE">     1</i>
   <i type="logical" name="LWAVE"> T  </i>
   <i type="logical" name="LCHARG"> T  </i>
   <i type="logical" name="LPARD"> F  </i>
   <i type="logical" name="LVTOT"> F  </i>
   <i type="logical" name="LVHAR"> F  </i>
   <i type="logical" name="LELF"> F  </i>
   <i type="logical" name="LOPTICS"> F  </i>
   <v name="STM">      0.00000000      0.00000000      0.00000000      0.00000000      0.00000000      0.00000000      0.00000000</v>
  </separator>
  <separator name="performance" >
   <i type="int" name="NPAR">     2</i>
   <i type="int" name="NSIM">     4</i>
   <i type="int" name="NBLK">    -1</i>
   <i type="logical" name="LPLANE"> T  </i>
   <i type="logical" name="LSCALAPACK"> F  </i>
   <i type="logical" name="LSCAAWARE"> F  </i>
   <i type="logical" name="LSCALU"> F  </i>
   <i type="logical" name="LASYNC"> F  </i>
   <i type="logical" name="LORBITALREAL"> F  </i>
  </separator>
  <separator name="miscellaneous" >
   <i type="int" name="IDIOT">     3</i>
   <i type="logical" name="LMUSIC"> F  </i>
   <v name="POMASS">    195.08000000</v>
   <v name="DARWINR">      0.00000000</v>
   <v name="DARWINV">      1.00000000</v>
   <i type="logical" name="LCORR"> T  </i>
  </separator>
  <i type="logical" name="GGA_COMPAT"> T  </i>
  <i type="logical" name="LBERRY"> F  </i>
  <i type="int" name="ICORELEVEL">     0</i>
  <i type="logical" name="LDAU"> F  </i>
  <i type="int" name="I_CONSTRAINED_M">     0</i>
  <separator name="electronic exchange-correlation" >
   <i type="string" name="GGA">--</i>
   <i type="int" name="VOSKOWN">     0</i>
   <i type="logical" name="LHFCALC"> F  </i>
   <i type="string" name="PRECFOCK"></i>
   <i type="logical" name="LSYMGRAD"> F  </i>
   <i type="logical" name="LHFONE"> F  </i>
   <i type="logical" name="LRHFCALC"> F  </i>
   <i type="logical" name="LTHOMAS"> F  </i>
   <i type="logical" name="LMODELHF"> F  </i>
   <i name="ENCUT4O">     -1.00000000</i>
   <i type="int" name="EXXOEP">     0</i>
   <i type="int" name="FOURORBIT">     0</i>
   <i name="AEXX">      0.00000000</i>
   <i name="HFALPHA">      0.00000000</i>
   <i name="MCALPHA">      0.00000000</i>
   <i name="ALDAX">      1.00000000</i>
   <i name="AGGAX">      1.00000000</i>
   <i name="ALDAC">      1.00000000</i>
   <i name="AGGAC">      1.00000000</i>
   <i type="int" name="NKREDX">     1</i>
   <i type="int" name="NKREDY">     1</i>
   <i type="int" name="NKREDZ">     1</i>
   <i type="logical" name="SHIFTRED"> F  </i>
   <i type="logical" name="ODDONLY"> F  </i>
   <i type="logical" name="EVENONLY"> F  </i>
   <i type="int" name="LMAXFOCK">     0</i>
   <i type="int" name="NMAXFOCKAE">     0</i>
   <i type="logical" name="LFOCKAEDFT"> F  </i>
   <i name="HFSCREEN">      0.00000000</i>
   <i name="HFSCREENC">      0.00000000</i>
   <i type="int" name="NBANDSGWLOW">     0</i>
  </separator>
  <separator name="vdW DFT" >
   <i type="logical" name="LUSE_VDW"> F  </i>
   <i name="Zab_VDW">     -0.84910000</i>
   <i name="PARAM1">      0.12340000</i>
   <i name="PARAM2">      1.00000000</i>
   <i name="PARAM3">      0.00000000</i>
  </separator>
  <separator name="model GW" >
   <i type="int" name="MODEL_GW">     0</i>
   <i name="MODEL_EPS0">      9.54248652</i>
   <i name="MODEL_ALPHA">      1.00000000</i>
  </separator>
  <separator name="linear response parameters" >
   <i type="logical" name="LEPSILON"> F  </i>
   <i type="logical" name="LRPA"> F  </i>
   <i type="logical" name="LNABLA"> F  </i>
   <i type="logical" name="LVEL"> F  </i>
   <i type="int" name="KINTER">     0</i>
   <i name="CSHIFT">      0.10000000</i>
   <i name="OMEGAMAX">     -1.00000000</i>
   <i name="DEG_THRESHOLD">      0.00200000</i>
  </separator>
  <separator name="orbital magnetization" >
   <i type="logical" name="NUCIND"> F  </i>
   <v name="MAGPOS">      0.00000000      0.00000000      0.00000000</v>
   <i type="logical" name="LNICSALL"> T  </i>
   <i type="logical" name="ORBITALMAG"> F  </i>
   <i type="logical" name="LMAGBLOCH"> F  </i>
   <i type="logical" name="LCHIMAG"> F  </i>
   <i type="logical" name="LGAUGE"> T  </i>
   <i type="int" name="MAGATOM">     0</i>
   <v name="MAGDIPOL">      0.00000000      0.00000000      0.00000000</v>
   <v name="AVECCONST">      0.00000000      0.00000000      0.00000000</v>
  </separator>
  <separator name="response functions" >
   <i type="logical" name="LADDER"> F  </i>
   <i type="logical" name="LFXC"> F  </i>
   <i type="logical" name="LHARTREE"> T  </i>
   <i type="int" name="IBSE">     0</i>
   <v type="int" name="KPOINT">    -1     0     0     0</v>
   <i type="logical" name="LTCTE"> F  </i>
   <i type="logical" name="LTETE"> F  </i>
   <i type="logical" name="LTRIPLET"> F  </i>
   <i type="logical" name="LFXCEPS"> F  </i>
   <i type="logical" name="LFXHEG"> F  </i>
   <i type="int" name="NATURALO">     0</i>
   <i type="logical" name="L2ORDER"> F  </i>
   <i type="logical" name="LUSEW"> F  </i>
   <i name="ENCUTGW">     -2.00000000</i>
   <i name="ENCUTGWSOFT">     -2.00000000</i>
   <i name="ENCUTLF">     -1.00000000</i>
   <i type="int" name="LMAXMP2">    -1</i>
   <i name="SCISSOR">      0.00000000</i>
   <i type="int" name="NOMEGA">     0</i>
   <i type="int" name="NOMEGAR">     0</i>
   <i type="int" name="NBANDSGW">    -1</i>
   <i type="int" name="NBANDSO">    -1</i>
   <i type="int" name="NBANDSV">    -1</i>
   <i type="int" name="NELM">     1</i>
   <i type="int" name="NELMHF">     1</i>
   <i type="int" name="DIM">     3</i>
   <i type="int" name="ANTIRES">     0</i>
   <i name="OMEGAMAX">    -30.00000000</i>
   <i name="OMEGAMIN">    -30.00000000</i>
   <i name="OMEGATL">   -200.00000000</i>
   <i type="int" name="OMEGAGRID">     0</i>
   <i name="CSHIFT">     -0.10000000</i>
   <i type="logical" name="SELFENERGY"> F  </i>
   <i type="logical" name="LSPECTRAL"> F  </i>
   <i type="logical" name="LSPECTRALGW"> F  </i>
   <i type="logical" name="LSINGLES"> F  </i>
   <i type="logical" name="LFERMIGW"> F  </i>
   <i type="logical" name="ODDONLYGW"> F  </i>
   <i type="logical" name="EVENONLYGW"> F  </i>
   <i type="int" name="NKREDLFX">     1</i>
   <i type="int" name="NKREDLFY">     1</i>
   <i type="int" name="NKREDLFZ">     1</i>
   <i type="int" name="MAXMEM">  1800</i>
   <i type="int" name="TELESCOPE">     0</i>
   <i type="int" name="TAUPAR">     1</i>
   <i type="int" name="OMEGAPAR">    -1</i>
   <i name="LAMBDA">      1.00000000</i>
  </separator>
  <separator name="External order field" >
   <i name="OFIELD_KAPPA">      0.00000000</i>
   <v name="OFIELD_K">      0.00000000      0.00000000      0.00000000</v>
   <i name="OFIELD_Q6_NEAR">      0.00000000</i>
   <i name="OFIELD_Q6_FAR">      0.00000000</i>
   <i name="OFIELD_A">      0.00000000</i>
  </separator>
 </parameters>
 <atominfo>
  <atoms>       2 </atoms>
  <types>       1 </types>
  <array name="atoms" >
   <dimension dim="1">ion</dimension>
   <field type="string">element</field>
   <field type="int">atomtype</field>
   <set>
    <rc><c>Pt</c><c>   1</c></rc>
    <rc><c>Pt</c><c>   1</c></rc>
   </set>
  </array>
  <array name="atomtypes" >
   <dimension dim="1">type</dimension>
   <field type="int">atomspertype</field>
   <field type="string">element</field>
   <field>mass</field>
   <field>valence</field>
   <field type="string">pseudopotential</field>
   <set>
    <rc><c>   2</c><c>Pt</c><c>    195.08000000</c><c>     10.00000000</c><c> PAW_PBE Pt 05Jan2001                   </c></rc>
   </set>
  </array>
 </atominfo>
 <structure name="initialpos" >
  <crystal>
   <varray name="basis" >
    <v>       3.16844933       0.00000000       0.00000000 </v>
    <v>       0.00000000       3.16844933       0.00000000 </v>
    <v>       0.00000000       0.00000000       3.16844933 </v>
   </varray>
   <i name="volume">     31.80828840 </i>
   <varray name="rec_basis" >
    <v>       0.31561180       0.00000000       0.00000000 </v>
    <v>       0.00000000       0.31561180       0.00000000 </v>
    <v>       0.00000000       0.00000000       0.31561180 </v>
   </varray>
  </crystal>
  <varray name="positions" >
   <v>       0.00000000       0.00000000       0.00000000 </v>
   <v>       0.50000000       0.50000000       0.50000000 </v>
  </varray>
 </structure>
 <calculation>
  <scstep>
   <time name="dav">    0.36    0.36</time>
   <time name="total">    0.42    0.76</time>
   <energy>
    <i name="alphaZ">    182.96524246 </i>
    <i name="ewald">  -1653.93799587 </i>
    <i name="hartreedc">   -152.25903457 </i>
    <i name="XCdc">      7.17210193 </i>
    <i name="pawpsdc">   1146.49098650 </i>
    <i name="pawaedc">  -1089.92424116 </i>
    <i name="eentropy">     -0.02876736 </i>
    <i name="bandstr">    296.07945793 </i>
    <i name="atom">   1458.22633362 </i>
    <i name="e_fr_energy">    194.78408348 </i>
    <i name="e_wo_entrp">    194.81285083 </i>
    <i name="e_0_energy">    194.79846715 </i>
   </energy>
  </scstep>
  <scstep>
   <time name="dav">    0.35    0.35</time>
   <time name="total">    0.35    0.36</time>
   <energy>
    <i name="e_fr_energy">     -4.38538560 </i>
    <i name="e_wo_entrp">     -4.34461783 </i>
    <i name="e_0_energy">     -4.36500171 </i>
   </energy>
  </scstep>
  <scstep>
   <time name="dav">    0.42    0.42</time>
   <time name="total">    0.42    0.43</time>
   <energy>
    <i name="e_fr_energy">    -12.52788190 </i>
    <i name="e_wo_entrp">    -12.49998398 </i>
    <i name="e_0_energy">    -12.51393294 </i>
   </energy>
  </scstep>
  <scstep>
   <time name="dav">    0.37    0.37</time>
   <time name="total">    0.37    0.38</time>
   <energy>
    <i name="e_fr_energy">    -12.65850412 </i>
    <i name="e_wo_entrp">    -12.63070458 </i>
    <i name="e_0_energy">    -12.64460435 </i>
   </energy>
  </scstep>
  <scstep>
   <time name="dav">    0.41    0.41</time>
   <time name="total">    0.47    0.47</time>
   <energy>
    <i name="e_fr_energy">    -12.66155505 </i>
    <i name="e_wo_entrp">    -12.63375350 </i>
    <i name="e_0_energy">    -12.64765428 </i>
   </energy>
  </scstep>
  <scstep>
   <time name="diag">    0.05    0.05</time>
   <time name="diis">    0.24    0.24</time>
   <time name="orth">    0.00    0.01</time>
   <time name="total">    0.40    0.41</time>
   <energy>
    <i name="e_fr_energy">    -12.00972429 </i>
    <i name="e_wo_entrp">    -11.97374484 </i>
    <i name="e_0_energy">    -11.99173457 </i>
   </energy>
  </scstep>
  <scstep>
   <time name="diag">    0.05    0.05</time>
   <time name="diis">    0.24    0.24</time>
   <time name="orth">    0.01    0.01</time>
   <time name="total">    0.40    0.41</time>
   <energy>
    <i name="e_fr_energy">    -11.95369982 </i>
    <i name="e_wo_entrp">    -11.91484518 </i>
    <i name="e_0_energy">    -11.93427250 </i>
   </energy>
  </scstep>
  <scstep>
   <time name="diag">    0.05    0.05</time>
   <time name="diis">    0.24    0.24</time>
   <time name="orth">    0.00    0.01</time>
   <time name="total">    0.40    0.41</time>
   <energy>
    <i name="e_fr_energy">    -11.94674625 </i>
    <i name="e_wo_entrp">    -11.90869849 </i>
    <i name="e_0_energy">    -11.92772237 </i>
   </energy>
  </scstep>
  <scstep>
   <time name="diag">    0.05    0.05</time>
   <time name="diis">    0.24    0.24</time>
   <time name="orth">    0.00    0.01</time>
   <time name="total">    0.40    0.41</time>
   <energy>
    <i name="e_fr_energy">    -11.94665070 </i>
    <i name="e_wo_entrp">    -11.90830182 </i>
    <i name="e_0_energy">    -11.92747626 </i>
   </energy>
  </scstep>
  <scstep>
   <time name="diag">    0.05    0.05</time>
   <time name="diis">    0.23    0.23</time>
   <time name="orth">    0.00    0.01</time>
   <time name="total">    0.40    0.40</time>
   <energy>
    <i name="e_fr_energy">    -11.94666773 </i>
    <i name="e_wo_entrp">    -11.90833126 </i>
    <i name="e_0_energy">    -11.92749949 </i>
   </energy>
  </scstep>
  <scstep>
   <time name="diag">    0.05    0.05</time>
   <time name="diis">    0.22    0.22</time>
   <time name="orth">    0.01    0.01</time>
   <time name="total">    0.32    0.33</time>
   <energy>
    <i name="alphaZ">    182.96524246 </i>
    <i name="ewald">  -1653.93799587 </i>
    <i name="hartreedc">   -133.09704200 </i>
    <i name="XCdc">      6.46963329 </i>
    <i name="pawpsdc">   1187.63008351 </i>
    <i name="pawaedc">  -1135.86127554 </i>
    <i name="eentropy">     -0.03828791 </i>
    <i name="bandstr">     75.69664759 </i>
    <i name="atom">   1458.22633362 </i>
    <i name="e_fr_energy">    -11.94666085 </i>
    <i name="e_wo_entrp">    -11.90837294 </i>
    <i name="e_0_energy">    -11.92751690 </i>
   </energy>
  </scstep>
  <structure>
   <crystal>
    <varray name="basis" >
     <v>       3.16844933       0.00000000       0.00000000 </v>
     <v>       0.00000000       3.16844933       0.00000000 </v>
     <v>       0.00000000       0.00000000       3.16844933 </v>
    </varray>
    <i name="volume">     31.80828840 </i>
    <varray name="rec_basis" >
     <v>       0.31561180       0.00000000       0.00000000 </v>
     <v>       0.00000000       0.31561180       0.00000000 </v>
     <v>       0.00000000       0.00000000       0.31561180 </v>
    </varray>
   </crystal>
   <varray name="positions" >
    <v>       0.00000000       0.00000000       0.00000000 </v>
    <v>       0.50000000       0.50000000       0.50000000 </v>
   </varray>
  </structure>
  <varray name="forces" >
   <v>      -0.00000000      -0.00000000      -0.00000000 </v>
   <v>       0.00000000       0.00000000       0.00000000 </v>
  </varray>
  <varray name="stress" >
   <v>      -0.90398943       0.00000000       0.00000000 </v>
   <v>       0.00000000      -0.90398943      -0.00000000 </v>
   <v>      -0.00000000      -0.00000000      -0.90398943 </v>
  </varray>
  <energy>
   <i name="e_fr_energy">    -11.94666085 </i>
   <i name="e_wo_entrp">    -11.92751690 </i>
   <i name="e_0_energy">     -0.03828791 </i>
  </energy>
  <time name="totalsc">    6.17    6.61</time>
  <eigenvalues>
   <array>
    <dimension dim="1">band</dimension>
    <dimension dim="2">kpoint</dimension>
    <dimension dim="3">spin</dimension>
    <field>eigene</field>
    <field>occ</field>
    <set>
     <set comment="spin 1">
      <set comment="kpoint 1">
       <r>   -2.5249    1.0000 </r>
       <r>    0.9012    1.0000 </r>
       <r>    0.9012    1.0000 </r>
       <r>    3.4484    1.0000 </r>
       <r>    3.4484    1.0000 </r>
       <r>    3.4484    1.0000 </r>
       <r>    5.9234    1.0000 </r>
       <r>    5.9234    1.0000 </r>
       <r>    7.4079    0.0002 </r>
       <r>    7.4079    0.0002 </r>
       <r>    7.4079    0.0002 </r>
       <r>   14.6717    0.0000 </r>
       <r>   14.6717    0.0000 </r>
       <r>   14.6717    0.0000 </r>
      </set>
      <set comment="kpoint 2">
       <r>   -2.2751    1.0000 </r>
       <r>    1.0208    1.0000 </r>
       <r>    1.0639    1.0000 </r>
       <r>    3.4537    1.0000 </r>
       <r>    3.4537    1.0000 </r>
       <r>    3.5473    1.0000 </r>
       <r>    5.7253    1.0000 </r>
       <r>    5.9975    1.0000 </r>
       <r>    7.0019    0.2664 </r>
       <r>    7.0019    0.2664 </r>
       <r>    7.2606    0.0071 </r>
       <r>   13.2789    0.0000 </r>
       <r>   15.3722    0.0000 </r>
       <r>   15.3722    0.0000 </r>
      </set>
      <set comment="kpoint 3">
       <r>   -1.5539    1.0000 </r>
       <r>    1.3730    1.0000 </r>
       <r>    1.4723    1.0000 </r>
       <r>    3.4958    1.0000 </r>
       <r>    3.4958    1.0000 </r>
       <r>    3.8378    1.0000 </r>
       <r>    5.1782    1.0000 </r>
       <r>    6.1236    1.0000 </r>
       <r>    6.1236    1.0000 </r>
       <r>    6.1913    1.0000 </r>
       <r>    6.8496    0.6748 </r>
       <r>   10.9067    0.0000 </r>
       <r>   17.1202    0.0000 </r>
       <r>   17.1202    0.0000 </r>
      </set>
      <set comment="kpoint 4">
       <r>   -0.4591    1.0000 </r>
       <r>    1.8513    1.0000 </r>
       <r>    1.9369    1.0000 </r>
       <r>    3.6367    1.0000 </r>
       <r>    3.6367    1.0000 </r>
       <r>    4.2992    1.0000 </r>
       <r>    4.3993    1.0000 </r>
       <r>    5.2128    1.0000 </r>
       <r>    5.2128    1.0000 </r>
       <r>    6.2539    1.0000 </r>
       <r>    6.4353    0.9996 </r>
       <r>    8.7579    0.0000 </r>
       <r>   19.4308    0.0000 </r>
       <r>   19.4308    0.0000 </r>
      </set>
      <set comment="kpoint 5">
       <r>    0.7831    1.0000 </r>
       <r>    1.7042    1.0000 </r>
       <r>    2.6745    1.0000 </r>
       <r>    3.5250    1.0000 </r>
       <r>    3.9444    1.0000 </r>
       <r>    3.9444    1.0000 </r>
       <r>    4.4670    1.0000 </r>
       <r>    4.4670    1.0000 </r>
       <r>    4.8953    1.0000 </r>
       <r>    5.5718    1.0000 </r>
       <r>    6.7165    0.9184 </r>
       <r>    7.3298    0.0016 </r>
       <r>   21.3985    0.0000 </r>
       <r>   22.0260    0.0000 </r>
      </set>
      <set comment="kpoint 6">
       <r>   -2.0343    1.0000 </r>
       <r>    1.1469    1.0000 </r>
       <r>    1.2131    1.0000 </r>
       <r>    3.2625    1.0000 </r>
       <r>    3.4445    1.0000 </r>
       <r>    3.8446    1.0000 </r>
       <r>    5.7084    1.0000 </r>
       <r>    5.9390    1.0000 </r>
       <r>    6.3701    0.9999 </r>
       <r>    6.5890    0.9892 </r>
       <r>    7.4662    0.0000 </r>
       <r>   13.7745    0.0000 </r>
       <r>   14.1344    0.0000 </r>
       <r>   15.9373    0.0000 </r>
      </set>
      <set comment="kpoint 7">
       <r>   -1.3453    1.0000 </r>
       <r>    1.4563    1.0000 </r>
       <r>    1.6343    1.0000 </r>
       <r>    3.1499    1.0000 </r>
       <r>    3.4500    1.0000 </r>
       <r>    4.2918    1.0000 </r>
       <r>    5.3170    1.0000 </r>
       <r>    5.4514    1.0000 </r>
       <r>    5.7491    1.0000 </r>
       <r>    6.1078    1.0000 </r>
       <r>    7.3084    0.0026 </r>
       <r>   11.5166    0.0000 </r>
       <r>   15.5128    0.0000 </r>
       <r>   17.4493    0.0000 </r>
      </set>
      <set comment="kpoint 8">
       <r>   -0.3215    1.0000 </r>
       <r>    1.8152    1.0000 </r>
       <r>    2.1245    1.0000 </r>
       <r>    3.1902    1.0000 </r>
       <r>    3.4940    1.0000 </r>
       <r>    4.5813    1.0000 </r>
       <r>    4.7552    1.0000 </r>
       <r>    4.8486    1.0000 </r>
       <r>    5.0239    1.0000 </r>
       <r>    6.3742    0.9999 </r>
       <r>    6.8271    0.7299 </r>
       <r>    9.2349    0.0000 </r>
       <r>   17.3408    0.0000 </r>
       <r>   19.5722    0.0000 </r>
      </set>
      <set comment="kpoint 9">
       <r>    0.8025    1.0000 </r>
       <r>    1.6474    1.0000 </r>
       <r>    2.7139    1.0000 </r>
       <r>    3.3051    1.0000 </r>
       <r>    3.4270    1.0000 </r>
       <r>    3.8904    1.0000 </r>
       <r>    4.4954    1.0000 </r>
       <r>    4.6653    1.0000 </r>
       <r>    5.4946    1.0000 </r>
       <r>    6.1816    1.0000 </r>
       <r>    6.7177    0.9171 </r>
       <r>    7.5480    0.0000 </r>
       <r>   19.0321    0.0000 </r>
       <r>   20.6488    0.0000 </r>
      </set>
      <set comment="kpoint 10">
       <r>   -0.7744    1.0000 </r>
       <r>    1.5760    1.0000 </r>
       <r>    2.1318    1.0000 </r>
       <r>    2.8208    1.0000 </r>
       <r>    3.4397    1.0000 </r>
       <r>    4.5182    1.0000 </r>
       <r>    4.9532    1.0000 </r>
       <r>    5.1041    1.0000 </r>
       <r>    5.4913    1.0000 </r>
       <r>    6.0021    1.0000 </r>
       <r>    7.6159    0.0000 </r>
       <r>   12.5917    0.0000 </r>
       <r>   13.1658    0.0000 </r>
       <r>   18.4436    0.0000 </r>
      </set>
      <set comment="kpoint 11">
       <r>   -0.0113    1.0000 </r>
       <r>    1.5700    1.0000 </r>
       <r>    2.6776    1.0000 </r>
       <r>    2.7526    1.0000 </r>
       <r>    3.5988    1.0000 </r>
       <r>    3.7050    1.0000 </r>
       <r>    4.8164    1.0000 </r>
       <r>    5.3167    1.0000 </r>
       <r>    5.6672    1.0000 </r>
       <r>    6.2158    1.0000 </r>
       <r>    7.4915    0.0000 </r>
       <r>   10.2245    0.0000 </r>
       <r>   14.6084    0.0000 </r>
       <r>   20.0900    0.0000 </r>
      </set>
      <set comment="kpoint 12">
       <r>    0.7144    1.0000 </r>
       <r>    1.2683    1.0000 </r>
       <r>    2.7654    1.0000 </r>
       <r>    3.1084    1.0000 </r>
       <r>    3.2944    1.0000 </r>
       <r>    3.6507    1.0000 </r>
       <r>    5.0255    1.0000 </r>
       <r>    5.2156    1.0000 </r>
       <r>    6.3847    0.9999 </r>
       <r>    6.7187    0.9160 </r>
       <r>    7.0316    0.2023 </r>
       <r>    8.0756    0.0000 </r>
       <r>   16.3157    0.0000 </r>
       <r>   18.1744    0.0000 </r>
      </set>
      <set comment="kpoint 13">
       <r>    0.2756    1.0000 </r>
       <r>    1.1904    1.0000 </r>
       <r>    2.3605    1.0000 </r>
       <r>    2.9832    1.0000 </r>
       <r>    3.6042    1.0000 </r>
       <r>    4.2590    1.0000 </r>
       <r>    4.9321    1.0000 </r>
       <r>    5.6600    1.0000 </r>
       <r>    6.1180    1.0000 </r>
       <r>    6.4772    0.9990 </r>
       <r>    7.7905    0.0000 </r>
       <r>   10.3812    0.0000 </r>
       <r>   13.0818    0.0000 </r>
       <r>   17.9482    0.0000 </r>
      </set>
      <set comment="kpoint 14">
       <r>    0.5159    1.0000 </r>
       <r>    0.8110    1.0000 </r>
       <r>    2.2941    1.0000 </r>
       <r>    2.5021    1.0000 </r>
       <r>    4.3547    1.0000 </r>
       <r>    4.7359    1.0000 </r>
       <r>    5.3561    1.0000 </r>
       <r>    5.7236    1.0000 </r>
       <r>    6.6855    0.9467 </r>
       <r>    7.1792    0.0303 </r>
       <r>    7.6595    0.0000 </r>
       <r>    8.4929    0.0000 </r>
       <r>   14.0524    0.0000 </r>
       <r>   15.7867    0.0000 </r>
      </set>
      <set comment="kpoint 15">
       <r>    0.4095    1.0000 </r>
       <r>    0.5030    1.0000 </r>
       <r>    2.0803    1.0000 </r>
       <r>    2.1498    1.0000 </r>
       <r>    5.5037    1.0000 </r>
       <r>    5.6119    1.0000 </r>
       <r>    5.6641    1.0000 </r>
       <r>    6.2222    1.0000 </r>
       <r>    6.6723    0.9561 </r>
       <r>    7.7272    0.0000 </r>
       <r>    7.9071    0.0000 </r>
       <r>    8.0059    0.0000 </r>
       <r>   13.1293    0.0000 </r>
       <r>   13.9254    0.0000 </r>
      </set>
      <set comment="kpoint 16">
       <r>   -1.7996    1.0000 </r>
       <r>    1.3158    1.0000 </r>
       <r>    1.3158    1.0000 </r>
       <r>    3.2436    1.0000 </r>
       <r>    3.2436    1.0000 </r>
       <r>    4.1571    1.0000 </r>
       <r>    5.5580    1.0000 </r>
       <r>    5.8024    1.0000 </r>
       <r>    5.8024    1.0000 </r>
       <r>    7.0651    0.1422 </r>
       <r>    7.0651    0.1422 </r>
       <r>   13.9465    0.0000 </r>
       <r>   14.8057    0.0000 </r>
       <r>   14.8057    0.0000 </r>
      </set>
      <set comment="kpoint 17">
       <r>   -1.1335    1.0000 </r>
       <r>    1.6128    1.0000 </r>
       <r>    1.7279    1.0000 </r>
       <r>    3.0720    1.0000 </r>
       <r>    3.2037    1.0000 </r>
       <r>    4.6206    1.0000 </r>
       <r>    4.6988    1.0000 </r>
       <r>    5.4303    1.0000 </r>
       <r>    6.0383    1.0000 </r>
       <r>    6.2185    1.0000 </r>
       <r>    7.1234    0.0691 </r>
       <r>   12.0422    0.0000 </r>
       <r>   15.3717    0.0000 </r>
       <r>   16.4401    0.0000 </r>
      </set>
      <set comment="kpoint 18">
       <r>   -0.1634    1.0000 </r>
       <r>    2.0178    1.0000 </r>
       <r>    2.0663    1.0000 </r>
       <r>    3.1198    1.0000 </r>
       <r>    3.1554    1.0000 </r>
       <r>    3.9735    1.0000 </r>
       <r>    4.9520    1.0000 </r>
       <r>    5.3433    1.0000 </r>
       <r>    5.3845    1.0000 </r>
       <r>    6.3292    1.0000 </r>
       <r>    6.7690    0.8470 </r>
       <r>    9.7664    0.0000 </r>
       <r>   16.7860    0.0000 </r>
       <r>   18.5004    0.0000 </r>
      </set>
      <set comment="kpoint 19">
       <r>    0.8697    1.0000 </r>
       <r>    1.6868    1.0000 </r>
       <r>    2.5891    1.0000 </r>
       <r>    2.9992    1.0000 </r>
       <r>    3.4196    1.0000 </r>
       <r>    3.7385    1.0000 </r>
       <r>    4.6421    1.0000 </r>
       <r>    4.8010    1.0000 </r>
       <r>    5.9284    1.0000 </r>
       <r>    6.3007    1.0000 </r>
       <r>    6.8134    0.7609 </r>
       <r>    7.9569    0.0000 </r>
       <r>   18.3063    0.0000 </r>
       <r>   19.9957    0.0000 </r>
      </set>
      <set comment="kpoint 20">
       <r>   -0.5562    1.0000 </r>
       <r>    1.7818    1.0000 </r>
       <r>    2.1818    1.0000 </r>
       <r>    2.7830    1.0000 </r>
       <r>    3.1179    1.0000 </r>
       <r>    3.7473    1.0000 </r>
       <r>    5.4126    1.0000 </r>
       <r>    5.5855    1.0000 </r>
       <r>    5.8077    1.0000 </r>
       <r>    5.9588    1.0000 </r>
       <r>    7.2097    0.0182 </r>
       <r>   13.1760    0.0000 </r>
       <r>   13.2415    0.0000 </r>
       <r>   17.0041    0.0000 </r>
      </set>
      <set comment="kpoint 21">
       <r>    0.1986    1.0000 </r>
       <r>    1.7698    1.0000 </r>
       <r>    2.6437    1.0000 </r>
       <r>    2.6476    1.0000 </r>
       <r>    3.2255    1.0000 </r>
       <r>    3.3431    1.0000 </r>
       <r>    5.2795    1.0000 </r>
       <r>    5.3820    1.0000 </r>
       <r>    6.1083    1.0000 </r>
       <r>    6.3093    1.0000 </r>
       <r>    7.0805    0.1191 </r>
       <r>   10.7986    0.0000 </r>
       <r>   14.5950    0.0000 </r>
       <r>   18.4304    0.0000 </r>
      </set>
      <set comment="kpoint 22">
       <r>    0.8790    1.0000 </r>
       <r>    1.4130    1.0000 </r>
       <r>    2.6748    1.0000 </r>
       <r>    2.7285    1.0000 </r>
       <r>    3.4689    1.0000 </r>
       <r>    3.4960    1.0000 </r>
       <r>    5.1473    1.0000 </r>
       <r>    5.2005    1.0000 </r>
       <r>    6.3131    1.0000 </r>
       <r>    6.6449    0.9713 </r>
       <r>    7.3357    0.0014 </r>
       <r>    8.7883    0.0000 </r>
       <r>   16.1549    0.0000 </r>
       <r>   18.0042    0.0000 </r>
      </set>
      <set comment="kpoint 23">
       <r>    0.5138    1.0000 </r>
       <r>    1.3622    1.0000 </r>
       <r>    2.3370    1.0000 </r>
       <r>    2.7846    1.0000 </r>
       <r>    3.5532    1.0000 </r>
       <r>    3.7680    1.0000 </r>
       <r>    5.2209    1.0000 </r>
       <r>    5.6741    1.0000 </r>
       <r>    6.1187    1.0000 </r>
       <r>    7.1490    0.0481 </r>
       <r>    7.2774    0.0051 </r>
       <r>   11.1841    0.0000 </r>
       <r>   12.9682    0.0000 </r>
       <r>   17.8907    0.0000 </r>
      </set>
      <set comment="kpoint 24">
       <r>    0.7288    1.0000 </r>
       <r>    0.9891    1.0000 </r>
       <r>    2.2739    1.0000 </r>
       <r>    2.4433    1.0000 </r>
       <r>    4.2419    1.0000 </r>
       <r>    4.3911    1.0000 </r>
       <r>    5.4587    1.0000 </r>
       <r>    5.6707    1.0000 </r>
       <r>    6.3473    1.0000 </r>
       <r>    6.9548    0.3856 </r>
       <r>    8.1409    0.0000 </r>
       <r>    9.5242    0.0000 </r>
       <r>   13.9654    0.0000 </r>
       <r>   15.7015    0.0000 </r>
      </set>
      <set comment="kpoint 25">
       <r>    0.6284    1.0000 </r>
       <r>    0.7067    1.0000 </r>
       <r>    2.0755    1.0000 </r>
       <r>    2.1408    1.0000 </r>
       <r>    5.2608    1.0000 </r>
       <r>    5.5086    1.0000 </r>
       <r>    5.6947    1.0000 </r>
       <r>    5.8746    1.0000 </r>
       <r>    6.2299    1.0000 </r>
       <r>    6.7977    0.7940 </r>
       <r>    8.9029    0.0000 </r>
       <r>    9.5754    0.0000 </r>
       <r>   12.9815    0.0000 </r>
       <r>   13.8198    0.0000 </r>
      </set>
      <set comment="kpoint 26">
       <r>    0.0310    1.0000 </r>
       <r>    2.3110    1.0000 </r>
       <r>    2.3110    1.0000 </r>
       <r>    2.6986    1.0000 </r>
       <r>    2.6986    1.0000 </r>
       <r>    2.8713    1.0000 </r>
       <r>    5.8295    1.0000 </r>
       <r>    5.8295    1.0000 </r>
       <r>    6.2823    1.0000 </r>
       <r>    6.4331    0.9997 </r>
       <r>    6.4331    0.9997 </r>
       <r>   13.1771    0.0000 </r>
       <r>   14.7338    0.0000 </r>
       <r>   14.7338    0.0000 </r>
      </set>
      <set comment="kpoint 27">
       <r>    0.7288    1.0000 </r>
       <r>    2.0608    1.0000 </r>
       <r>    2.4597    1.0000 </r>
       <r>    2.6245    1.0000 </r>
       <r>    2.6524    1.0000 </r>
       <r>    3.0840    1.0000 </r>
       <r>    5.6375    1.0000 </r>
       <r>    5.7857    1.0000 </r>
       <r>    6.1131    1.0000 </r>
       <r>    6.5791    0.9910 </r>
       <r>    7.2571    0.0076 </r>
       <r>   11.8109    0.0000 </r>
       <r>   14.3375    0.0000 </r>
       <r>   16.5221    0.0000 </r>
      </set>
      <set comment="kpoint 28">
       <r>    1.1880    1.0000 </r>
       <r>    1.5516    1.0000 </r>
       <r>    2.5555    1.0000 </r>
       <r>    2.5893    1.0000 </r>
       <r>    3.1233    1.0000 </r>
       <r>    3.4496    1.0000 </r>
       <r>    5.4661    1.0000 </r>
       <r>    5.4662    1.0000 </r>
       <r>    6.2807    1.0000 </r>
       <r>    6.4049    0.9998 </r>
       <r>    8.4009    0.0000 </r>
       <r>    9.8990    0.0000 </r>
       <r>   15.4308    0.0000 </r>
       <r>   17.2112    0.0000 </r>
      </set>
      <set comment="kpoint 29">
       <r>    1.1836    1.0000 </r>
       <r>    1.6670    1.0000 </r>
       <r>    2.2978    1.0000 </r>
       <r>    2.6331    1.0000 </r>
       <r>    2.9489    1.0000 </r>
       <r>    3.3755    1.0000 </r>
       <r>    5.7557    1.0000 </r>
       <r>    5.8467    1.0000 </r>
       <r>    6.1111    1.0000 </r>
       <r>    6.5633    0.9934 </r>
       <r>    8.3293    0.0000 </r>
       <r>   12.7111    0.0000 </r>
       <r>   12.7699    0.0000 </r>
       <r>   16.6863    0.0000 </r>
      </set>
      <set comment="kpoint 30">
       <r>    1.2778    1.0000 </r>
       <r>    1.3766    1.0000 </r>
       <r>    2.2878    1.0000 </r>
       <r>    2.4502    1.0000 </r>
       <r>    3.6043    1.0000 </r>
       <r>    3.8324    1.0000 </r>
       <r>    5.7408    1.0000 </r>
       <r>    5.8062    1.0000 </r>
       <r>    6.2538    1.0000 </r>
       <r>    6.4314    0.9997 </r>
       <r>    9.4718    0.0000 </r>
       <r>   10.9055    0.0000 </r>
       <r>   13.8222    0.0000 </r>
       <r>   15.4523    0.0000 </r>
      </set>
      <set comment="kpoint 31">
       <r>    1.2296    1.0000 </r>
       <r>    1.2354    1.0000 </r>
       <r>    2.0888    1.0000 </r>
       <r>    2.1778    1.0000 </r>
       <r>    4.4052    1.0000 </r>
       <r>    4.4843    1.0000 </r>
       <r>    5.9028    1.0000 </r>
       <r>    5.9518    1.0000 </r>
       <r>    6.2485    1.0000 </r>
       <r>    6.3652    0.9999 </r>
       <r>   10.4887    0.0000 </r>
       <r>   11.4219    0.0000 </r>
       <r>   12.6005    0.0000 </r>
       <r>   13.6194    0.0000 </r>
      </set>
      <set comment="kpoint 32">
       <r>    1.6435    1.0000 </r>
       <r>    2.0820    1.0000 </r>
       <r>    2.3123    1.0000 </r>
       <r>    2.3123    1.0000 </r>
       <r>    3.0626    1.0000 </r>
       <r>    3.0626    1.0000 </r>
       <r>    6.0807    1.0000 </r>
       <r>    6.0807    1.0000 </r>
       <r>    6.1519    1.0000 </r>
       <r>    6.1519    1.0000 </r>
       <r>    9.5235    0.0000 </r>
       <r>   12.4836    0.0000 </r>
       <r>   14.5803    0.0000 </r>
       <r>   14.5803    0.0000 </r>
      </set>
      <set comment="kpoint 33">
       <r>    1.6081    1.0000 </r>
       <r>    1.7925    1.0000 </r>
       <r>    2.4436    1.0000 </r>
       <r>    2.7111    1.0000 </r>
       <r>    3.0602    1.0000 </r>
       <r>    3.4171    1.0000 </r>
       <r>    6.0232    1.0000 </r>
       <r>    6.0348    1.0000 </r>
       <r>    6.2397    1.0000 </r>
       <r>    6.2752    1.0000 </r>
       <r>   10.6734    0.0000 </r>
       <r>   11.8651    0.0000 </r>
       <r>   13.8167    0.0000 </r>
       <r>   14.8599    0.0000 </r>
      </set>
      <set comment="kpoint 34">
       <r>    1.7704    1.0000 </r>
       <r>    2.0149    1.0000 </r>
       <r>    2.1868    1.0000 </r>
       <r>    2.4699    1.0000 </r>
       <r>    3.4643    1.0000 </r>
       <r>    3.6065    1.0000 </r>
       <r>    6.1347    1.0000 </r>
       <r>    6.1463    1.0000 </r>
       <r>    6.2674    1.0000 </r>
       <r>    6.2829    1.0000 </r>
       <r>   11.6145    0.0000 </r>
       <r>   12.1548    0.0000 </r>
       <r>   13.3975    0.0000 </r>
       <r>   13.8124    0.0000 </r>
      </set>
      <set comment="kpoint 35">
       <r>    2.1219    1.0000 </r>
       <r>    2.4422    1.0000 </r>
       <r>    2.4422    1.0000 </r>
       <r>    2.9091    1.0000 </r>
       <r>    2.9091    1.0000 </r>
       <r>    2.9809    1.0000 </r>
       <r>    6.2761    1.0000 </r>
       <r>    6.2761    1.0000 </r>
       <r>    6.2768    1.0000 </r>
       <r>    6.2768    1.0000 </r>
       <r>   11.8157    0.0000 </r>
       <r>   11.8622    0.0000 </r>
       <r>   14.6278    0.0000 </r>
       <r>   15.4183    0.0000 </r>
      </set>
     </set>
    </set>
   </array>
  </eigenvalues>
  <separator name="orbital magnetization" >
   <v name="MAGDIPOLOUT">      0.00000000      0.00000000      0.00000000</v>
  </separator>
 </calculation>
 <structure name="finalpos" >
  <crystal>
   <varray name="basis" >
    <v>       3.16844933       0.00000000       0.00000000 </v>
    <v>       0.00000000       3.16844933       0.00000000 </v>
    <v>       0.00000000       0.00000000       3.16844933 </v>
   </varray>
   <i name="volume">     31.80828840 </i>
   <varray name="rec_basis" >
    <v>       0.31561180       0.00000000       0.00000000 </v>
    <v>       0.00000000       0.31561180       0.00000000 </v>
    <v>       0.00000000       0.00000000       0.31561180 </v>
   </varray>
  </crystal>
  <varray name="positions" >
   <v>       0.00000000       0.00000000       0.00000000 </v>
   <v>       0.50000000       0.50000000       0.50000000 </v>
  </varray>
 </structure>
</modeling>
