unknown system                          
           1
     3.168449    0.000000    0.000000
     0.000000    3.168449    0.000000
     0.000000    0.000000    3.168449
   Pt
   2
Direct configuration=     1
   0.00000000  0.00000000  0.00000000
   0.50000000  0.50000000  0.50000000
